/*--------------------------------*- C++ -*----------------------------------*\
  =========                 |
  \\      /  F ield         | OpenFOAM: The Open Source CFD Toolbox
   \\    /   O peration     | Website:  https://openfoam.org
    \\  /    A nd           | Version:  6
     \\/     M anipulation  |
\*---------------------------------------------------------------------------*/
FoamFile
{
    version     2.0;
    format      ascii;
    class       volScalarField;
    location    "0.2";
    object      p;
}
// * * * * * * * * * * * * * * * * * * * * * * * * * * * * * * * * * * * * * //

dimensions      [0 2 -2 0 0 0 0];

internalField   nonuniform List<scalar> 
127306
(
0.0208003
0.0203765
0.021035
0.0211254
0.0401144
0.0401669
0.0404703
0.0270818
0.0269175
0.0273606
0.0272051
0.0276435
0.0551118
0.0549756
0.0551741
0.0549863
0.0551367
0.0209301
0.0207571
0.0208628
0.0210097
0.0284389
0.0281889
0.0279915
0.055179
0.0549692
0.0552438
0.0553994
0.0288769
0.0551429
0.0552028
0.0552353
0.0550888
0.0293065
0.0292468
0.0291438
0.0550869
0.0550608
0.0387726
0.0298914
0.0296699
0.0295366
0.0548774
0.0549718
0.0547644
0.0549999
0.0204024
0.0205453
0.0206945
0.0305764
0.030324
0.0157608
0.0165416
0.0161586
0.0165932
0.0161394
0.0199509
0.0201087
0.0201578
0.0308724
0.0309039
0.0305756
0.0316179
0.0314023
0.0311468
0.000266023
0.000379058
0.000521522
0.000264634
0.000443342
0.0322475
0.0318122
0.0316527
0.000218275
0.000151559
0.000140648
-2.167e-06
0.0390134
0.0389539
0.0390769
0.0323644
0.0322991
0.0322283
0.000145478
4.03166e-05
0.000226412
0.000335358
0.0329155
0.0326324
0.0325619
0.000149127
0.00013152
0.0332853
0.0331598
0.03291
0.000193903
0.000142527
0.000262961
-2.7248e-05
0.0196555
0.0196607
0.0197829
0.0347004
0.033265
0.0331799
0.0226558
0.02289
0.0230976
0.0229533
0.0342552
0.0341833
0.034692
0.0167794
0.0160363
0.0349353
0.0349616
0.0351326
0.0223452
0.0222208
0.0278594
0.0274866
0.0325925
0.0324672
0.0326235
0.0327401
0.0472193
0.0471015
0.0470882
0.0468799
0.0398123
0.0396086
0.0397445
0.0472094
0.0478023
0.0474381
0.036296
0.0363642
0.0367053
0.0365108
0.0326779
0.032731
0.0328839
0.0328012
0.0293196
0.0292035
0.0295063
0.029403
0.0322493
0.0322543
0.0467834
0.0468745
0.0264421
0.0266123
0.0264124
0.0266239
0.0267297
0.0266038
0.0269145
0.0319346
0.0480398
0.0261947
0.0310475
0.0309795
0.0302966
0.0463205
0.0466447
0.0298884
0.0482164
0.0237256
0.0234788
0.0295414
0.000207315
0.000322526
0.000165348
1.71524e-05
0.0291249
0.000169862
0.000108678
0.0286833
0.0486448
0.000114925
0.000190782
6.82534e-05
-4.32653e-05
0.0283827
0.045802
0.0457991
0.0458324
5.29884e-05
0.000166884
0.0549495
0.0549009
0.0547029
0.0549287
0.0192585
0.0192649
0.0196457
0.0547141
0.0549087
0.0490467
0.0491419
0.0488029
0.0549486
0.0551937
0.0551586
0.0548235
0.0274352
0.0262081
0.0270728
0.0456897
0.0453982
0.0454878
0.0548295
0.0548713
0.0260415
0.0260986
0.0259612
0.0256256
0.0343596
0.0346956
0.0252046
0.0490438
0.0497112
0.0492359
0.0345043
0.0344547
0.0343028
0.0246826
0.0453348
0.0448889
0.0347169
0.0346141
0.0345534
0.0245852
0.0349328
0.0240413
0.0235544
0.0448064
0.0231506
0.0227895
0.0501021
0.0219132
0.0444597
0.0211039
0.0501273
0.0199582
0.0194273
0.0442875
0.0503685
0.0438546
0.0507275
0.0434466
0.0436357
0.0190876
0.0510989
0.0188162
0.05482
0.0552321
0.0550517
0.0548805
0.0549314
0.0433252
0.0431465
0.0547902
0.054961
0.0547311
0.0550614
0.0346141
0.0339387
0.0517093
0.0516738
0.0514712
0.0549267
0.0347331
0.0345629
0.0344287
0.0548188
0.035344
0.0357592
0.042662
0.0549118
0.0357486
0.0548962
0.0182622
0.0184987
0.0185258
0.0522521
0.0517997
0.0516447
0.0549879
0.0547983
0.0547893
0.0362162
0.054925
0.0369482
0.0367435
0.0548802
0.0369537
0.0372188
0.0373464
0.0425045
0.0549306
0.0525476
0.0548215
0.0189837
0.0550027
0.0186537
0.0549117
0.0550452
0.0549516
0.0185785
0.0528376
0.0526269
0.0550257
0.0419169
0.0421472
0.0549558
0.0179902
0.0180797
0.0181976
0.0550186
0.0392245
0.0391002
0.0391582
0.0179368
0.0179306
0.0178457
0.0550048
0.0548818
0.0552392
0.0551876
0.0554743
0.055459
0.0552961
0.0372549
0.0375479
0.0374485
0.0528041
0.0529932
0.0528206
0.0554532
0.0415895
0.0414365
0.0550735
0.0554057
0.0554677
0.0552386
0.0551655
0.0549898
0.0551221
0.0551348
0.0550685
0.0178802
0.0551784
0.0548637
0.0550614
0.0549015
0.0546589
0.0548715
0.0550548
0.0547737
0.0549614
0.0550457
0.0547614
0.0547805
0.0547841
0.0171989
0.0174551
0.0179562
0.053296
0.0537229
0.0538095
0.0549137
0.0411856
0.0412098
0.037916
0.0383045
0.054719
0.0546984
0.0548744
0.0172954
0.0548513
0.0550103
0.0396272
0.0395565
0.0552589
0.0550894
0.0171277
0.0173231
0.0551461
0.0538386
0.0552302
0.0550674
0.0550858
0.0548677
0.0548706
0.0390068
0.0386193
0.0404061
0.0404312
0.0402238
0.0550926
0.0172084
0.0174992
0.0409307
0.0408513
0.0408928
0.01655
0.039428
0.0170713
0.0542016
0.0540788
0.0320294
0.039955
0.00845883
0.00824188
0.00830217
0.00844701
0.00815189
0.00794508
0.00777777
0.00895404
0.00929791
0.0544401
0.00795229
0.00950838
0.00781077
0.00728783
0.00768542
0.00869981
0.0084893
0.00820362
0.00837265
0.00812051
0.00797013
0.0079615
0.00990974
0.00694517
0.00672108
0.00702508
0.00913824
0.00909434
0.00772203
0.0101786
0.00648692
0.00639548
0.00660564
0.00933386
0.00740523
0.0323418
0.0105907
0.00625895
0.00978571
0.00712087
0.0109536
0.00671559
0.00584036
0.0102263
0.0115092
0.0112443
0.00655371
0.00525388
0.0104318
0.0118406
0.0118854
0.0117404
0.0109318
0.0291658
0.00494272
0.0121893
0.012214
0.0121064
0.00558402
0.00600357
0.00600511
0.0280216
0.0282499
0.011356
0.0272871
0.0274674
0.027124
0.00468239
0.0124424
0.0124984
0.0124332
0.00538001
0.00544023
0.00543456
0.0115432
0.00432613
0.0326492
0.0128334
0.0131261
0.0132255
0.00518544
0.0039591
0.0123645
0.0311248
0.0310321
0.030679
0.0312262
0.0132432
0.0134126
0.0132883
0.00483188
0.0305176
0.00293494
0.00340931
0.00357787
0.0123286
0.0123001
0.0330856
0.0137274
0.0137756
0.00421433
0.0293162
0.00272006
0.00283886
0.00273094
0.012359
0.0129175
0.0128353
0.0143023
0.0140209
0.00359715
0.00381212
0.00373939
0.0131096
0.0133639
0.0130988
0.00234533
0.0027137
0.00328748
0.0138416
0.0140456
0.0142859
0.0143785
0.0145395
0.0145579
0.00307381
0.0252396
0.0253294
0.00275795
0.00219204
0.00262917
0.00190739
0.00193475
0.00182058
0.0139826
0.0143451
0.0142946
7.59666e-05
3.01952e-05
0.000241502
0.000125718
0.000197539
0.000288487
0.000305739
0.00013555
0.0146725
0.0150131
0.0149417
0.00191553
0.00186992
0.00192601
0.00135517
0.00202907
0.0144712
0.0145228
0.0145267
0.000198309
0.000146642
-0.000105587
0.000146328
0.000161076
9.71892e-05
0.000227232
7.06734e-05
0.000120204
0.000337884
0.000192535
0.000158054
0.00165829
0.00124889
0.00185315
0.0264308
0.0266368
0.000337599
0.0262358
0.0261725
0.0263264
0.014901
0.0149512
0.0146084
0.000100103
0.0259596
0.0252592
0.0252375
0.0254995
0.0251704
0.0252445
0.0250655
0.0252056
0.0150412
0.0154889
0.0154326
-9.1122e-05
0.0319555
0.0317814
0.0313016
0.0316759
0.0311809
0.0311551
0.0312974
0.00109051
0.000138556
0.0305194
0.0308704
0.0309422
0.000181289
0.000140703
-4.08201e-05
0.0304364
0.0305152
0.030406
0.000122151
0.000196485
0.000174743
0.00017442
0.000148517
0.0300743
0.0293576
0.0297301
0.000206766
-1.91271e-05
0.0156975
0.0157962
0.0160103
0.0244875
0.0246923
0.0153831
0.0154468
0.0153565
0.0292878
0.0292479
0.0293186
0.0151825
0.0282108
0.0286139
0.0289087
0.0283792
0.0283759
0.0283854
0.0159765
0.0159162
0.0156093
0.000946924
0.00078689
0.0277282
0.0279117
0.0280353
0.000314098
0.000248098
0.0275337
0.027174
0.0273929
0.0268855
0.000163984
0.000234623
0.0322724
0.0321279
0.03212
0.000112153
0.000120542
0.0243542
0.0243106
0.0241449
0.03303
9.0976e-05
0.0329476
0.0327894
0.0327352
0.0162123
0.000376745
0.000482973
0.0239945
0.0238652
0.032794
0.0327655
0.0329685
5.7882e-05
0.0332448
0.0335629
0.0332858
0.0344114
0.0343782
0.047512
0.0472588
0.0471382
0.0470568
0.0341658
0.0349037
0.0475656
0.0480082
0.0475433
6.45186e-05
0.0470847
0.0468881
0.0350784
0.0483269
0.0465821
0.0485045
0.0462401
0.0268266
0.0267557
0.0488182
0.0458686
0.0490504
0.0454964
0.0212626
0.0209576
0.0491868
0.0492493
0.0493491
0.0213795
0.0213838
0.0214157
0.0218863
0.0217803
0.0216271
0.0221798
0.0220962
0.0218845
0.044896
0.0451869
0.022456
0.0225694
0.0228132
0.0228283
0.0496636
0.0496952
0.0496682
0.0444337
0.0443965
0.0444873
0.0270379
0.0270153
0.0268598
0.0271593
0.0271668
0.0274224
0.0275843
0.0275566
0.0502169
0.0498942
0.0498696
0.0441228
0.0439883
0.0441638
0.0278241
0.0279585
0.0277193
0.0278726
0.0280054
0.0502717
0.0500745
0.0282773
0.0281077
0.0436746
0.0435922
0.0437363
0.0284594
0.0285945
0.0283858
0.0287937
0.0287722
0.0285449
0.0288598
0.0289367
0.0290009
0.0506814
0.0509955
0.0289894
0.0432878
0.0434091
0.0433138
0.0295502
0.0297052
0.02977
0.0298932
0.0510764
0.0301928
0.0300887
0.029824
0.0431317
0.04323
0.0430054
0.0303751
0.0304424
0.030488
0.0306478
0.0305735
0.030743
0.0309243
0.0308717
0.0513262
0.0512036
0.0311959
0.0313105
0.0311115
0.0424454
0.0428001
0.0315676
0.0314577
0.0312286
0.0316807
0.031801
0.0317746
0.0320642
0.0321843
0.0319929
0.0514479
0.0517415
0.0516702
0.0517623
0.032148
0.0324963
0.0324665
0.0425336
0.0330478
0.0332288
0.0334048
0.0333767
0.0520899
0.0521307
0.0521091
0.0335319
0.0336554
0.0337392
0.041979
0.0422152
0.0339076
0.033904
0.0337406
0.0340197
0.0342708
0.0341748
0.034487
0.0343253
0.034289
0.0346885
0.0348665
0.0526494
0.0525369
0.0525032
0.0351094
0.035014
0.0352227
0.0354522
0.0358313
0.0356341
0.0358447
0.0361206
0.0359677
0.0414724
0.0413298
0.0412508
0.0362316
0.0370369
0.0367906
0.0372616
0.0371208
0.0370785
0.0529325
0.0528582
0.0529431
0.0375297
0.0377049
0.0378282
0.0381664
0.0385256
0.0412851
0.040838
0.0415178
0.0536235
0.0533414
0.0533137
0.0393892
0.0399535
0.04034
0.0405802
0.040516
0.053857
0.0538285
0.0542594
0.0540536
0.000131263
0.000180008
0.000194017
0.00021992
0.000197878
0.000129199
9.8961e-05
-0.000120933
7.6062e-05
1.95793e-06
0.000138954
4.66243e-05
0.000208597
0.00024813
0.000113867
8.22628e-05
2.17998e-05
0.000144908
0.000110397
0.000146228
0.000147846
4.91208e-05
0.000248318
0.000259989
0.000189483
0.000155661
0.0303523
0.0305259
0.0304613
0.0305362
0.0306046
0.0306671
0.0306135
0.0305629
0.0305731
0.0305579
0.0306235
0.0307478
0.0309975
0.0305277
0.0307253
0.0309798
0.0310679
0.0310664
0.0305049
0.0305746
0.0306339
0.0307245
0.0303249
0.0306415
0.0304804
0.0303735
0.0307303
0.030735
0.0306961
0.0297358
0.0301294
0.0302038
0.0294859
0.030944
0.0307638
0.0308375
0.0308139
0.0307444
0.030864
0.0307793
0.0308869
0.0308163
0.030862
0.0312853
0.0310502
0.0314804
0.031442
0.0309486
0.0311141
0.0313156
0.0551958
0.0552489
0.0552359
0.0551744
0.0549073
0.0543929
0.0551481
0.0550391
0.0551253
0.0551237
0.0544477
0.0549971
0.0552466
0.029858
0.0300485
0.0293462
0.0294314
0.0295162
0.0297669
0.0296455
0.029435
0.0294161
0.0293889
0.0291245
0.0291887
0.0294942
0.0163263
0.0162269
0.0163572
0.0166833
0.0164035
0.0167455
0.0164994
0.0164302
0.0316222
0.0315472
0.0317073
0.0315626
0.0311932
0.0311349
0.0312778
0.0315338
0.0312169
0.0314915
0.0308881
0.0312278
0.0312171
0.0312886
0.031692
0.0214722
0.0212425
0.0212709
0.0214061
0.0167392
0.0164319
0.0167901
0.0168593
0.0167669
0.0164763
0.033373
0.0333292
0.0552212
0.0550292
0.0331632
0.0340738
0.0336694
0.0342269
0.0342145
0.0342527
0.033859
0.0335864
0.0340508
0.034713
0.03483
0.0345916
0.0341291
0.0336344
0.0335617
0.0331025
0.0332389
0.0332725
0.0335839
0.0332499
0.0334084
0.0335056
0.0333163
0.0333304
0.0334035
0.0339607
0.0340545
0.0339352
0.0334185
0.0330641
0.033075
0.0329983
0.0332094
0.0518549
0.0519437
0.0519094
0.0520675
0.00241096
0.00285561
0.00249553
1.5812e-05
6.60595e-06
0.000341017
0.000574347
9.62811e-05
0.000338037
0.000399426
0.000873006
0.0330187
0.0330103
0.0330804
0.0329352
0.032611
0.0327515
0.0330271
0.0329587
0.0329913
0.0328919
0.0327918
0.0329114
0.00127473
0.00101393
0.00118009
0.00108322
0.0538042
0.0539757
0.0538595
0.0537724
0.021903
0.0217102
0.0217615
0.0220122
0.0210863
0.021274
0.0209366
0.0210544
0.0207492
0.029768
0.0294801
0.0292698
0.0295699
0.0289787
0.0294659
0.0291047
0.0291302
0.0258339
0.02571
0.0258897
0.026006
0.0258639
0.0257683
0.026014
0.0257924
0.0280262
0.02831
0.0278455
0.0310093
0.0310346
0.0309744
0.030917
0.0309557
0.0308119
0.0310972
0.0236836
0.0238636
0.0235845
0.0549899
0.0548438
0.0541262
0.0546637
0.054969
0.0548613
0.0547413
0.054944
-5.0969e-05
-2.24767e-05
5.41238e-05
6.92425e-05
0.000176926
0.000273602
0.000149519
0.000340978
0.000357819
0.0328541
0.0327325
0.0329057
0.01701
0.0169733
0.0171912
0.0309283
0.03099
0.0309328
0.000493624
6.17102e-05
8.39467e-05
7.57501e-05
0.000137471
0.000315774
0.000308454
0.00046298
7.55685e-05
0.0185841
0.018421
0.0183663
0.018659
0.0288217
0.0288732
0.0290397
0.0289258
0.027671
0.0272408
0.0273711
0.0281084
0.0273345
0.0551413
0.0542729
0.0539439
0.0547731
0.0551451
0.0551481
0.0552177
0.0552527
0.0554834
0.0326442
0.032866
0.0329076
0.0328325
0.0327983
0.0165816
0.0161545
0.0161997
0.0162317
0.0165964
0.0159494
0.0550446
0.0548903
0.0341781
0.0341701
0.0341216
0.0340161
0.0235799
0.0237368
0.0234265
0.0236886
0.051442
0.0516311
0.0515138
0.0517124
0.051483
0.020467
0.0207621
0.0207661
0.0209319
0.0552395
0.0549672
0.0549405
0.0238908
0.0241939
0.0239947
9.95948e-06
-0.000278188
4.08005e-05
-0.000147174
1.68542e-05
0.000132192
0.000157298
9.73727e-05
0.0374996
0.0374425
0.037439
0.038727
0.0385775
0.0387042
0.0276839
0.0275676
0.0276143
0.0275695
0.030302
0.0303704
0.030694
0.0554402
0.0554171
0.0550517
0.0552795
0.0550868
0.000458428
0.000320851
1.88943e-05
0.000690577
7.61657e-05
0.000350039
0.0180293
0.0181899
0.018066
0.0181623
0.0181935
0.000118119
2.02292e-05
0.00023772
1.67162e-05
5.04831e-05
5.97699e-05
7.06873e-05
0.000458832
0.000507494
0.000415288
0.000583139
7.17856e-06
2.41756e-05
0.000292828
0.000177831
0.0551511
0.0550675
0.0550263
0.0550772
0.054953
0.0548215
0.0551657
0.0542888
0.0541248
0.0540264
0.0542591
0.0550823
0.0550908
0.0548414
0.055123
0.054466
0.0550001
0.0550307
0.0547973
0.0550207
0.0550566
0.0550635
0.0550611
0.0551277
0.0551547
0.0548701
0.0544596
0.0544782
0.0543352
0.055128
0.0542981
0.000543739
7.94171e-05
0.000229175
0.000136547
0.000233154
2.64525e-05
5.19548e-05
1.04548e-05
0.000135156
7.49871e-05
0.000500213
0.000421553
0.000569923
0.000401497
-3.77965e-05
1.21155e-06
0.0204988
0.020363
0.0391306
0.0389495
0.038987
0.0395305
0.0390928
0.0393688
0.0392457
0.0387628
0.0387913
0.0389609
0.0267953
0.0267924
0.0269484
0.0263204
0.0261093
0.0263519
0.0262631
0.0172997
0.017329
0.0174092
0.00274645
0.00257194
0.00256432
0.00248789
0.00278499
5.46962e-05
0.000133982
0.0548912
0.0548438
0.0549762
0.0343222
0.0340852
0.0341216
0.0340105
0.0339282
0.0169045
0.01674
0.0164846
0.0398107
0.0400517
0.0402508
0.016032
0.0159027
0.0159934
0.0160211
0.0162843
0.0163331
0.0402569
0.0403278
0.0401856
0.0401481
0.0402896
0.0403697
0.0202543
0.0200891
0.0202462
0.0551949
0.0550911
0.0551138
0.0550732
0.0164517
0.0165277
0.0162115
0.0163676
0.016469
0.0161486
0.0163981
0.0396816
0.0392009
0.0398164
0.0397761
0.0395766
0.0397764
0.0399779
0.039619
0.039456
0.0395082
0.0393707
0.0397871
0.0399885
0.0161275
0.0162137
0.0163055
0.00012892
4.91284e-05
0.0259135
0.0260249
0.0261172
0.0263322
0.0260247
0.0236763
0.0239345
0.024024
0.0239717
0.0238395
0.0284426
0.0286008
0.0280608
0.015619
0.0157695
0.0011003
0.0011181
0.00084626
0.000963984
0.0405891
0.0405154
0.0405937
0.0157141
0.0156651
0.0156945
0.0235407
0.0234992
0.023653
0.0365308
0.0366133
0.0365844
0.0406683
0.0405621
0.0405893
0.0301375
0.0302888
0.0303585
0.0550067
0.0549792
0.0550814
0.0203844
0.0204691
0.0204242
0.020341
0.0333386
0.0329919
0.0327402
0.0333244
0.0334922
0.0332108
0.0332777
0.0320849
0.0315356
0.0312869
0.0315588
0.0314014
0.0314062
0.0314627
0.0315262
0.031567
0.0321715
0.0321413
0.0320895
0.0318703
0.0319332
0.0319634
0.0315914
0.0316778
0.03169
0.0536709
0.0536797
0.0537586
0.0342481
0.0340796
0.0339329
0.0164918
0.0171281
0.0172599
0.0168707
0.0166988
0.0164056
0.016615
0.0165148
0.0168147
0.0162323
0.0165414
0.0164973
0.0164518
0.0165868
0.0164572
0.0550016
0.054952
0.0550849
0.0552545
0.0550619
0.0550683
0.0256252
0.0257334
0.025891
0.0257772
0.0258281
2.94225e-05
-1.04074e-05
0.000120907
0.000312248
0.0189438
0.0186537
0.0189184
0.0378872
0.0380784
0.0381013
0.0379103
0.025286
0.0249469
0.0250254
0.0252275
0.0291748
0.0290174
0.0289044
0.0367935
0.0365933
0.0364247
0.0366085
0.0274982
0.0273535
0.0273389
0.0273968
0.000127896
0.000140394
0.0353875
0.0352347
0.0353307
0.0262064
0.026337
0.0263668
0.00351142
0.00374537
0.00371292
0.0465319
0.0464103
0.0465705
0.0549111
0.0550992
0.0550905
0.0553507
0.0215885
0.0216487
0.0212296
0.0210035
0.0207497
0.021122
0.0210917
0.0210751
0.0368808
0.0370325
0.0367198
0.0220164
0.0221937
0.0221345
0.0217516
0.0221824
0.0481042
0.0481884
0.0482427
0.0551049
0.0549824
0.0549675
0.0266488
0.0265157
0.0266378
0.0263848
0.0264677
0.0460598
0.0462162
0.0462248
0.00750526
0.00765848
0.00757525
0.0399065
0.0401655
0.0399628
0.00908292
0.00922668
0.00937248
0.0544988
0.0550797
0.0551083
0.0549772
0.0541265
0.0546988
0.0553386
0.00719917
0.00720353
0.00716798
0.0549605
0.0545889
0.0550454
0.0550365
0.0549058
0.0549372
0.0479263
0.0482304
0.0480697
0.00761418
0.00747627
0.00783525
0.0399145
0.0399535
0.013867
0.0137905
0.0140281
0.0143795
0.0383081
0.0384463
0.038504
0.0384804
0.0385528
0.0385422
0.0383725
0.0384175
0.0419085
0.0417176
0.0418587
0.0228937
0.0229018
0.022517
0.0227704
0.0353432
0.0350683
0.0548913
0.0547732
0.0338197
0.0336183
0.0337786
0.0338594
0.0320748
0.0322901
0.0322604
0.0319213
0.0316718
0.031997
0.0319802
0.0315647
0.0316959
0.0315142
0.0315254
0.0313603
0.0313387
0.031546
0.000260532
7.47811e-05
-3.96568e-06
8.49726e-05
0.000122783
0.000126094
-0.000175704
0.0241698
0.0242547
0.0241841
0.0241165
0.0241492
0.028455
0.0285039
0.0286174
0.0282193
0.0334986
0.0335092
0.0336422
0.0336402
0.0336101
0.0377575
0.0377014
0.00319608
0.00311623
0.00330524
0.0139756
0.0141486
0.0145875
0.0517634
0.0518602
0.051729
0.0379504
0.0378175
0.0380967
0.0378296
0.0377367
0.0378575
0.0275769
0.0277052
0.0275376
0.027388
0.0273114
0.0262914
0.0262239
0.0261245
0.0260921
0.0260799
0.0259641
0.0193037
0.0195203
0.0195346
0.0402405
0.0403504
0.0402912
0.0399394
0.039898
0.0401094
0.0399016
0.0396761
0.0400309
0.0398202
0.0397625
0.03992
0.0398698
0.0322419
0.0323549
0.0322742
0.0320811
0.0171742
0.017909
0.0180503
0.000759484
0.000966388
0.000741483
0.000457536
0.000868192
0.000828228
0.000563089
0.000562611
0.000739365
0.0380385
0.037879
0.0377562
0.0537606
0.0536616
0.0537747
0.0537389
0.0537662
0.0544857
0.0551798
0.0547177
0.053825
0.000171623
0.000150633
0.000379435
0.000114698
0.000396929
6.27302e-05
8.09289e-05
0.0380416
0.0375802
0.0375107
0.0378578
0.0379348
0.0375477
0.0278894
0.0279484
0.027782
0.0318098
0.0318785
0.0320762
0.0188376
0.0189657
0.0188284
0.0246242
0.0248535
0.0247087
0.0247502
0.0249602
0.0246215
0.0158202
0.015781
0.0155104
0.0535077
0.0534267
0.0536027
0.036522
0.0366778
0.0362819
0.0363131
0.0177404
0.0175889
0.0176892
-0.00012825
0.000103714
0.000128793
0.0337443
0.0338246
0.0528279
0.052759
0.0525729
0.0528681
0.0254988
0.0255884
0.0254948
0.030695
0.0309472
0.0309707
0.0308869
0.0311115
0.0200329
0.0204591
0.0203178
0.020741
0.020059
0.0227395
0.0227488
0.0224718
0.0330244
0.0329943
0.0328812
0.0328456
0.00197159
0.00128141
0.00182589
0.0231291
0.0233488
0.0232616
0.0264254
0.0264139
0.0263968
0.053518
0.0535838
0.0535693
0.00760055
0.00763343
0.00756997
0.00733534
0.00744807
0.0240377
0.0236205
0.0240846
0.00196135
0.00138478
0.00184863
0.0473958
0.0474254
0.0472909
0.0473085
0.0527445
0.0529592
0.0526238
0.0530374
0.0334019
0.0332982
0.0332781
0.033394
0.00852084
0.00879438
0.00857488
0.00874085
0.0344878
0.0348679
0.034538
-4.13752e-05
0.000181308
0.000126262
0.00017981
0.00885052
0.00844454
0.008721
0.0473159
0.0475043
0.0475657
0.0473657
0.0475794
0.0473712
0.0470561
0.0471455
0.0471551
0.047081
0.0299097
0.0298651
0.0300161
0.0469609
0.0471092
0.0469852
0.0467026
0.00798251
0.0083361
0.00852948
0.00831911
0.00818407
0.00824676
0.00803827
0.0200054
0.0198098
0.019859
0.0207511
0.0206707
0.0205577
0.0473465
0.0476
0.0472258
0.0471529
0.0474734
0.0477725
0.0476319
0.0473717
0.0235735
0.0235473
0.0236851
0.00889678
0.00886793
0.00870402
0.00874931
0.00858052
0.00846799
0.00865
0.00848233
0.00879306
0.00854408
0.0270556
0.0269299
0.0269952
0.0298336
0.0299078
0.0300014
0.029928
0.00163605
0.00207092
0.00190025
0.00253982
0.0207084
0.0201933
0.0204647
0.0207697
0.0261485
0.0261149
0.0258979
0.0259901
0.0259074
0.0259633
0.0258353
0.0309236
0.0312736
0.0308934
0.0311759
0.0310109
0.024462
0.0241816
0.0242076
0.0243265
0.0343085
0.0341958
0.0343672
0.0243947
0.0246939
0.0243836
0.0245678
0.0243742
0.0520994
0.0522502
0.0518832
0.0520723
0.041434
0.0418993
0.0420482
0.041938
0.0419355
0.0282475
0.0280684
0.0280099
0.0520247
0.0520508
0.0515537
0.051966
3.48922e-06
3.62058e-05
6.4532e-05
0.0002153
2.89932e-05
0.000174908
0.000656744
0.000527168
0.000776149
0.018494
0.018706
0.0186206
0.00224341
0.00227785
0.0021192
0.0241039
0.024238
0.0243389
0.0187978
0.018801
0.0189976
0.0190036
0.0191306
0.0418433
0.04212
0.0417067
2.99454e-05
4.91847e-05
3.30446e-05
0.00429447
0.00414395
0.0039237
0.00405335
0.023829
0.0237701
0.0231749
0.0237121
0.0236146
0.0162476
0.0159414
0.0164948
0.0171451
0.0171666
0.0165149
0.0171919
0.0162954
0.0161616
0.0159523
0.0163949
0.01601
0.0290365
0.0290316
0.0289814
0.0291109
0.0289727
0.0290898
0.0297392
0.0295001
0.0290708
0.0293346
0.0293445
0.029308
0.0288695
0.0289041
0.0286171
0.0290205
0.0289485
0.0290569
0.0288794
0.0540346
0.0539222
0.0533905
0.00407145
0.00390914
0.00385914
0.00360046
0.00388967
0.0379082
0.0379304
0.0380122
0.023808
0.0238358
0.0240278
0.051469
0.0513508
0.0514729
0.0511227
0.041367
0.0412075
0.0407526
0.0531779
0.0531584
0.0529963
0.0535762
0.0011895
0.00110696
0.00135369
0.0407204
0.0407932
0.0409426
0.0147218
0.014438
0.0142354
0.0143295
0.0141837
0.0155224
0.0154305
0.0153174
0.0548385
0.0549202
0.0150943
0.0151203
0.0409979
0.0410246
0.0407662
0.0519266
0.0517114
0.0518571
0.0518316
0.0518532
0.00110497
0.000794458
0.0011561
0.000949398
0.028694
0.0287502
0.0288148
0.028864
0.0288387
0.0287926
0.0285673
0.01528
0.0152682
0.0151797
0.0153704
0.0152599
0.0152348
0.0405105
0.0409179
0.0408522
0.0408077
0.0406211
0.0405062
0.0150895
0.0152522
0.015328
0.053485
0.0535626
0.0537589
0.0538204
0.0537553
0.0537361
0.000504121
0.00071372
0.000387238
0.000683582
0.000908828
0.0348003
0.0348874
0.0348864
0.0350625
0.0348673
0.0408027
0.0410721
0.0409765
0.0409665
0.0411601
0.04081
0.0242868
0.0241668
0.0239923
0.0243996
0.0244215
0.0241676
0.0149166
0.0152355
0.0155129
0.0150782
0.0145006
0.0408214
0.0406213
0.0405578
0.0409954
0.0146437
0.0151483
0.0151482
0.0151963
0.014746
0.0155853
0.0151433
0.0150227
0.00121214
0.00116559
0.00120519
0.00149349
0.00103399
0.00123278
0.00132319
0.00121522
0.00138312
0.00110259
0.00160932
0.0542132
0.0550368
0.0540242
0.0547101
0.05417
0.0373943
0.0375567
0.0375653
0.0539597
0.0537625
0.0539782
0.0536759
0.0538497
0.0532794
0.0521471
0.0521741
0.0520623
0.0140477
0.0141173
0.0142322
0.0418024
0.0420145
0.042042
0.0419171
0.0140244
0.0143167
0.0142219
0.000407987
0.000675789
0.000369133
0.000477804
0.000500555
0.0378483
0.0377163
0.0377859
0.0375315
0.0524054
0.0522528
0.0522556
0.0232643
0.0234888
0.00399208
0.00386721
0.00386875
0.0277903
0.0276344
0.0280041
0.0280682
0.0281724
0.0278758
0.0281022
0.0516441
0.0513786
0.0517843
0.0515561
0.0512918
0.0549041
0.0549435
0.0548708
0.0177263
0.0178192
0.0178356
0.0151324
0.0151839
0.0152261
0.0262147
0.0261922
0.0261486
0.0262024
0.0262262
0.0260829
0.0261128
0.0259715
0.0413012
0.0408308
0.0413338
0.00136509
0.00171863
0.00157536
0.052795
0.0523112
0.0522159
0.0526267
0.041009
0.0408505
0.0351833
0.0353637
0.0349835
0.0350501
0.0532008
0.0532078
0.0534117
0.0255796
0.0255713
0.0256838
0.0420262
0.0421271
0.042264
0.0423402
0.0148441
0.0148706
0.0397062
0.0396538
0.015768
0.0163227
0.0166076
0.0163738
0.0310301
0.0313325
0.0314452
0.0312991
0.0307747
0.0314024
0.032272
0.0326407
0.03261
0.0327322
0.0326605
0.0326382
0.0327197
0.0327455
0.0321936
0.0326342
0.0323855
0.0319913
0.0324304
0.00116268
0.00129545
0.00147434
0.0532745
0.0536714
0.0534826
0.021828
0.0217265
0.0212244
0.0217281
0.0234495
0.0233749
0.0232728
0.0231667
0.0233254
0.0284303
0.0281699
0.0281061
0.0531937
0.0530848
0.0532065
0.00158728
0.00139495
0.0011907
0.0535618
0.0533882
0.0536062
0.0535563
0.038657
0.0384872
0.0385797
0.0525486
0.0530745
0.0529889
0.0232516
0.0232439
0.0235936
0.0236426
0.0241362
0.0236025
0.0242936
0.0241303
0.0244554
0.0371967
0.0373346
0.0370275
0.0253273
0.02526
0.0252714
0.025148
0.0290677
0.0288769
0.0292122
0.0285821
0.029386
0.0293438
0.0291198
0.00335329
0.00335268
0.00345588
0.0416744
0.0418304
0.0417779
0.0337715
0.0343273
0.0343335
0.0343967
0.0343989
0.0339361
0.0340908
0.00127892
0.00113523
0.00142893
0.00135911
0.0517115
0.0517968
0.0517245
0.0197704
0.0199685
0.0193932
0.00311287
0.00324565
0.00345281
0.00334786
0.0034142
0.00345295
0.00290641
0.00297724
0.00284052
0.00227293
0.00272583
0.00274592
0.00268867
0.035456
0.0355307
0.0353471
0.0350999
0.0526863
0.0524038
0.0271418
0.0272079
0.0271354
0.0269048
0.0327235
0.0326191
0.0320679
0.0323441
0.0330214
0.0330381
0.0330402
0.0333502
0.0330781
0.0387268
0.0385655
0.0386855
0.0384052
0.00426343
0.00437102
0.00265755
0.00271827
0.00246064
0.0323729
0.0324423
0.0323359
0.0323994
0.0324532
0.0193374
0.0189587
0.019215
0.0191841
0.019229
0.00246239
0.00252704
0.00233593
0.0381569
0.0379801
0.0378808
0.0379602
0.0384023
0.0216949
0.0215522
0.0215665
0.0216338
0.0216682
0.0215518
0.0535873
0.054215
0.0539973
0.0540683
0.05375
0.0143156
0.013757
0.0142543
0.0142265
0.00123547
0.0014174
0.00119088
0.00135808
0.0012558
0.042125
0.0420453
0.0420583
0.0421877
0.0293109
0.0292997
0.029342
0.0333697
0.0337269
0.0334584
0.0550985
0.0546965
0.0548383
0.0549109
0.0546247
0.0538286
0.0536711
0.053816
0.0538463
0.0537617
0.0540729
0.0544028
0.0548622
0.0548933
0.0548176
0.030182
0.0300654
0.0301845
0.0300855
0.0137333
0.0142593
0.0144949
0.0143472
0.0528108
0.0528744
0.0529644
0.0288701
0.0291007
0.0290075
0.0288736
0.0291854
0.029173
0.0290631
0.000797729
0.000843697
0.000822458
0.000517364
0.00041428
0.000465593
7.74619e-05
9.71679e-05
0.000147617
0.000151608
8.15123e-05
7.20216e-05
0.000153229
0.000291136
0.000299042
0.0283238
0.0284421
0.028353
0.0281589
0.0283683
0.0283119
0.0281653
0.0282456
0.000603466
0.000436676
-0.000131052
6.81739e-05
-0.00032118
-0.000230479
9.82551e-05
0.000359389
0.000351123
0.000494832
8.97683e-05
0.0303128
0.0303651
0.0302535
0.0302797
0.0299604
0.0176494
0.017267
0.0178387
0.0175694
0.0176772
0.017338
0.0471012
0.0469763
0.0467996
0.0466294
0.0529691
0.0529675
0.0528931
0.0275151
0.0274778
0.0274993
0.027495
0.0336772
0.0338479
0.0337082
0.0335923
0.0335205
0.0333722
0.00409001
0.00393219
0.00426707
0.00404107
0.00409705
0.00430771
0.00424706
0.0474655
0.047231
0.0473612
0.028837
0.0283615
0.0285426
0.0284772
0.0288376
0.0287343
0.0296185
0.0292292
0.0289507
0.0288035
0.0288277
0.0287723
0.028954
0.0292051
0.0289644
0.0420609
0.0423409
0.0419821
0.0233061
0.0231644
0.0326544
0.0327215
0.0326182
0.0325398
0.032724
0.0325597
0.0239296
0.0241494
0.0239951
0.0240714
0.0241652
0.0242155
0.0238941
0.00252924
0.00246062
0.00255154
0.0247145
0.0246526
0.0248788
0.0248707
0.0204447
0.0203454
0.0547209
0.0552629
0.0550021
0.0553099
0.0549167
0.0551144
0.0552052
0.0551293
0.0548656
0.0543157
0.053983
0.0471516
0.047157
0.0471086
0.0341804
0.0343429
0.0341228
0.0343429
0.0176822
0.0168834
0.0164836
0.0171811
0.0186771
0.0187826
0.0191717
0.0190683
0.0548993
0.0550236
0.0551721
0.0547179
0.0550228
0.0549677
0.042137
0.0419443
0.0420864
0.0421507
0.00012154
5.17848e-05
0.000184665
6.84538e-05
0.000185951
0.000123527
-0.000312751
0.0086505
0.00841085
0.00847928
0.0237116
0.0236396
0.0238929
0.0239364
0.0267308
0.0267793
0.026513
0.0137264
0.0141143
0.0140257
0.0138051
0.0473627
0.0473484
0.0474685
0.0140147
0.01434
0.0140275
0.0142461
0.00809811
0.00798599
0.00772593
0.00785672
0.0150771
0.0153597
0.0155425
0.0152448
0.0152826
0.00104138
0.00111598
0.000860396
0.0010723
0.000809642
0.000839283
0.0405601
0.040655
0.0403994
0.0406776
0.0405796
0.0405075
0.00204036
0.0023092
0.00223293
0.018545
0.0192406
0.0195662
0.0193791
0.0124901
0.0130341
0.0128709
0.0129797
0.0282251
0.0285291
0.0285605
0.0285929
0.0287428
0.0260703
0.026098
0.0261278
0.0261276
0.0259438
0.0259363
0.00884069
0.00789511
0.00870032
0.00847777
0.0156904
0.0157035
0.0155114
0.0155034
0.0151856
0.015025
0.00859596
0.00885477
0.00870262
0.0468784
0.0469339
0.0470713
0.0337665
0.0335278
8.73619e-05
-0.000154806
0.000217481
0.000137848
0.0287692
0.0290318
0.0291564
0.0129472
0.0129713
0.0128151
0.0128918
0.0254659
0.0254292
0.025107
0.0253624
0.024886
0.0244062
0.0244698
0.0245668
0.0245724
0.0241537
0.0431409
0.0432602
0.0433363
0.042931
0.0366612
0.0369025
0.0366991
0.0366842
0.0367114
0.0368041
0.0367781
0.0370021
0.0369906
0.00311573
0.0034827
0.00312562
0.00331906
0.0278754
0.0277636
0.027573
0.0276588
0.0278446
0.0159487
0.0161181
0.0156322
0.0161083
0.0161414
0.0154175
0.0157197
0.0152454
0.0149649
0.0155143
0.0356645
0.0353677
0.0356954
0.0357345
0.0358525
0.0355715
0.000205048
-0.000152229
8.40794e-05
0.000176441
0.000261844
0.000170311
0.000104922
0.00298372
0.00291813
0.00312649
0.0519611
0.0520036
0.0518847
0.052009
0.0526144
0.052686
0.0524717
0.0529418
0.0527996
0.0527033
0.0525303
0.0376829
0.037735
0.0375311
0.0375587
0.0375982
0.0373822
0.0373978
0.0310353
0.0310416
0.0312659
0.0308936
0.0314564
0.0313954
0.0314303
0.0333045
0.0332755
0.0405813
0.0406368
0.0404692
0.0406506
0.0405935
0.0405275
0.0275659
0.027697
0.0278486
0.0278871
0.0281619
0.028016
0.0277242
0.0279183
0.0521472
0.052115
0.0521335
0.00813929
0.00796732
0.00770495
0.00740755
0.0169653