/*--------------------------------*- C++ -*----------------------------------*\
  =========                 |
  \\      /  F ield         | OpenFOAM: The Open Source CFD Toolbox
   \\    /   O peration     | Website:  https://openfoam.org
    \\  /    A nd           | Version:  6
     \\/     M anipulation  |
\*---------------------------------------------------------------------------*/
FoamFile
{
    version     2.0;
    format      ascii;
    class       surfaceScalarField;
    location    "0.2";
    object      phi;
}
// * * * * * * * * * * * * * * * * * * * * * * * * * * * * * * * * * * * * * //

dimensions      [0 3 -1 0 0 0 0];

internalField   nonuniform List<scalar> 
245676
(
1.3005e-05
-1.51159e-05
2.11092e-06
1.3005e-05
-1.30784e-05
-2.03754e-06
-1.30784e-05
9.20688e-06
-9.20688e-06
-8.26093e-06
-4.87877e-06
1.31397e-05
-8.26093e-06
1.16171e-05
-1.03521e-05
-1.26501e-06
1.16171e-05
1.19873e-05
-1.19873e-05
1.6352e-06
-1.0498e-05
1.0498e-05
6.08133e-06
1.38139e-06
7.71442e-06
2.76582e-06
1.19491e-06
-2.43837e-07
6.39154e-06
8.90933e-06
5.8375e-06
1.10918e-05
-1.08713e-05
-2.20489e-07
-1.12286e-05
1.08067e-05
4.21875e-07
-1.10918e-05
-1.36795e-07
1.16854e-05
-1.16854e-05
1.06989e-05
9.86446e-07
2.00994e-07
-8.51872e-06
-5.14784e-06
1.36666e-05
5.55362e-06
4.968e-06
8.06906e-06
1.41023e-05
-1.14531e-05
1.14531e-05
3.78734e-06
7.0216e-06
5.24689e-06
8.50133e-06
9.04877e-06
3.62106e-06
1.42957e-05
1.19747e-05
-1.19747e-05
1.15241e-05
4.50604e-07
7.09338e-08
6.23899e-06
7.70056e-06
4.6672e-06
8.53059e-06
9.58192e-06
-9.58192e-06
1.20996e-05
-1.20996e-05
1.20966e-05
2.99e-09
1.21912e-07
6.78599e-06
2.84006e-06
7.61526e-06
-7.20901e-06
6.37974e-06
7.61526e-06
2.96779e-06
-1.10738e-05
1.07544e-05
3.19383e-07
-1.08067e-05
-2.67095e-07
1.08802e-05
-1.08802e-05
-1.60554e-07
1.10408e-05
-1.61298e-05
1.10147e-05
5.11513e-06
1.76066e-05
-9.36137e-06
-8.24523e-06
1.47677e-06
-9.36137e-06
1.10147e-05
-1.08531e-05
1.13784e-05
-5.25299e-07
-1.07544e-05
-9.87184e-08
1.03911e-05
-1.03911e-05
1.16033e-05
-1.21229e-06
7.23128e-07
9.88891e-06
-9.88891e-06
1.10935e-05
-1.20457e-06
7.02422e-07
-4.90463e-06
-3.66715e-06
-7.67049e-06
-2.55022e-06
-1.0827e-07
-7.56222e-06
-1.27218e-06
-6.99449e-06
-6.17681e-06
1.0253e-05
-1.0253e-05
1.04937e-05
-2.40682e-07
6.04809e-07
-8.68423e-06
-7.64658e-06
6.51992e-06
-1.52041e-05
-6.65708e-06
-8.15252e-06
-1.37885e-05
-1.00803e-05
1.00803e-05
1.01267e-05
-1.17857e-05
1.659e-06
4.6351e-08
9.9326e-06
-9.9326e-06
9.96118e-06
-2.85855e-08
-2.91854e-07
-5.8222e-06
-5.57031e-06
-5.42534e-06
-9.9506e-06
8.87909e-06
-1.43044e-05
-5.70459e-06
1.17482e-05
-1.17482e-05
9.98818e-06
1.75999e-06
5.55836e-08
-9.85064e-06
-5.75609e-06
-5.77625e-06
-7.00958e-06
1.37382e-05
-1.37382e-05
1.23004e-05
1.43785e-06
5.52202e-07
-7.25858e-06
-2.74276e-06
7.25106e-06
-7.25106e-06
7.32538e-06
-7.3329e-06
-2.41578e-06
-1.05466e-05
1.18808e-05
-1.33415e-06
-1.13784e-05
8.318e-07
7.54043e-06
-7.54043e-06
7.68929e-06
-1.48866e-07
-6.04892e-06
-1.47277e-05
1.05601e-05
4.16758e-06
-1.58966e-05
1.16893e-06
-1.58966e-05
1.05601e-05
9.1768e-06
-6.18871e-06
1.24143e-05
1.27724e-05
-3.59558e-06
7.19778e-06
-7.62412e-06
7.62412e-06
9.26498e-06
-9.26498e-06
-4.87514e-06
1.20729e-05
3.89257e-06
8.06628e-06
1.25125e-05
-1.52542e-05
1.52542e-05
1.67556e-05
-1.67556e-05
-1.43335e-05
1.43335e-05
1.44328e-05
-1.44328e-05
1.3238e-05
-1.12798e-05
-1.95826e-06
1.3238e-05
-1.34245e-05
2.14469e-06
-1.34245e-05
1.15926e-05
-1.06986e-05
-8.94009e-07
1.1579e-05
1.35586e-08
1.1579e-05
1.19408e-05
-3.6174e-07
-8.22126e-06
1.48007e-05
-6.57946e-06
1.1234e-05
-1.1234e-05
-8.22126e-06
-1.06986e-05
1.12616e-05
-1.26477e-05
1.38608e-06
5.62998e-07
9.95928e-06
-1.06936e-05
7.34318e-07
9.95928e-06
1.12548e-05
-1.12548e-05
5.61207e-07
1.05369e-05
-1.03692e-05
-1.67696e-07
1.05369e-05
1.04034e-05
-1.04034e-05
3.4173e-08
1.03207e-05
-1.01866e-05
-1.34018e-07
1.03207e-05
1.03203e-05
-1.03203e-05
1.3368e-07
1.27697e-05
-1.24023e-05
-3.67355e-07
1.27697e-05
-1.10219e-05
1.10219e-05
9.18883e-07
-6.01864e-06
2.11339e-06
3.90525e-06
-8.26856e-06
2.24992e-06
-1.01993e-05
1.23127e-05
-1.2665e-05
2.46574e-06
-9.61392e-06
-3.05113e-06
-8.26856e-06
-9.61392e-06
-1.45218e-05
1.45218e-05
-1.26477e-05
8.49308e-06
3.81961e-06
-1.44553e-05
1.44553e-05
1.48809e-05
-1.48809e-05
1.47374e-05
-1.47374e-05
-1.24356e-05
1.29517e-05
-5.1613e-07
-1.24356e-05
-1.45669e-05
1.45669e-05
1.2364e-05
-1.2364e-05
1.46615e-05
-1.15849e-05
-3.07656e-06
-1.23512e-06
1.45027e-05
-1.45027e-05
-7.24463e-06
-2.77001e-06
-7.17079e-06
7.34385e-06
-7.41769e-06
-7.17079e-06
-2.50831e-06
1.45343e-05
-1.45343e-05
-1.02042e-05
-5.66529e-06
-5.82749e-06
-6.7783e-06
-1.46509e-05
1.46509e-05
1.19193e-05
-1.19193e-05
-5.83571e-06
-5.60956e-06
-7.11956e-06
-7.28117e-06
5.89676e-06
-1.30163e-05
-9.49041e-06
-1.44631e-05
1.44631e-05
1.08859e-05
2.06573e-06
-1.08859e-05
1.15097e-05
-6.23781e-07
-7.51718e-06
-5.81375e-06
-8.06014e-06
-7.65951e-06
6.86236e-06
2.7611e-06
7.61501e-06
-7.48541e-06
6.73276e-06
7.61501e-06
2.68217e-06
-1.19955e-05
1.02714e-05
1.72413e-06
-1.18808e-05
-1.14695e-07
5.02259e-06
8.09119e-06
6.3466e-06
7.53109e-06
1.2096e-05
-1.20069e-05
-8.90983e-08
1.18476e-05
2.48338e-07
1.18476e-05
7.31753e-06
5.27767e-06
4.79848e-06
-3.42902e-06
8.51576e-06
1.2116e-05
7.36059e-06
1.58033e-05
-1.58033e-05
-1.50476e-05
1.3837e-05
1.21052e-06
7.55747e-07
1.11041e-05
4.05614e-07
-1.11041e-05
1.12883e-05
-1.84191e-07
7.36095e-06
6.82069e-06
4.77166e-06
9.97331e-06
-1.40445e-05
1.33982e-05
6.46256e-07
-1.3837e-05
-2.0743e-07
1.33982e-05
5.26057e-06
4.41303e-06
8.25336e-06
-2.99278e-06
1.44271e-05
-1.44271e-05
-1.20069e-05
1.31138e-05
-1.39712e-05
8.57388e-07
1.10698e-06
4.49799e-06
5.05238e-06
-3.43359e-06
7.93158e-06
6.1168e-06
1.41319e-05
-1.41319e-05
1.15045e-05
-2.162e-07
1.15045e-05
4.17733e-06
5.61826e-06
-6.53604e-06
1.07134e-05
3.13766e-06
1.50994e-05
-1.50994e-05
5.25855e-07
1.48723e-05
-1.48723e-05
1.5207e-05
-1.5207e-05
-1.19492e-05
1.19492e-05
-1.54226e-05
1.54226e-05
-1.54859e-05
1.54859e-05
-1.39712e-05
1.6821e-05
-6.53815e-08
-1.1797e-05
1.1797e-05
3.74262e-06
1.23464e-05
-1.23464e-05
1.27474e-05
-1.27474e-05
1.46721e-05
-1.46721e-05
-1.16365e-05
1.16365e-05
1.22768e-05
-1.22768e-05
-1.1937e-05
1.1937e-05
1.20767e-05
-1.20767e-05
-1.28291e-05
1.15324e-05
1.29669e-06
-1.28291e-05
1.02714e-05
1.21592e-05
-1.21592e-05
-1.1588e-05
1.1588e-05
6.07194e-06
6.0285e-06
3.465e-06
-3.74279e-06
1.22393e-05
9.53694e-06
3.3749e-06
-2.83274e-06
1.09939e-05
9.4034e-06
1.06436e-05
8.88791e-07
1.06436e-05
9.27032e-06
3.77425e-06
-3.82336e-06
1.2046e-05
1.30446e-05
9.0431e-06
1.30186e-05
-1.28537e-05
-1.64888e-07
1.30186e-05
1.21929e-05
-1.18506e-05
-3.42292e-07
1.15381e-05
6.54821e-07
1.15381e-05
8.99618e-06
-1.23001e-05
-5.53563e-07
1.23001e-05
-1.43368e-05
2.03665e-06
3.20318e-06
9.66293e-06
-1.48219e-05
4.85108e-07
-1.48219e-05
1.14372e-05
-1.14372e-05
7.45413e-06
5.51065e-06
-1.34758e-05
1.34758e-05
7.31857e-06
5.40381e-06
-1.18508e-05
1.08359e-05
1.01487e-06
-1.26699e-05
8.19165e-07
-1.26699e-05
1.27093e-05
-1.32233e-05
5.13938e-07
1.18506e-05
8.58701e-07
4.60142e-06
-4.24462e-06
1.25164e-05
-8.68456e-06
1.3286e-05
4.18607e-06
1.34903e-05
-1.34903e-05
6.87938e-06
5.70596e-06
1.20196e-05
-1.27559e-05
7.36309e-07
1.20196e-05
8.48001e-06
-1.35207e-05
7.64882e-07
1.35207e-05
-1.29365e-05
-5.84253e-07
-1.17812e-05
1.17812e-05
5.52592e-06
7.09775e-06
-1.32233e-05
7.54983e-06
5.17361e-06
1.41241e-05
-1.41241e-05
5.89769e-06
7.32538e-06
1.42023e-05
-1.42023e-05
8.9024e-06
4.37585e-06
4.35372e-06
-4.14478e-06
1.31348e-05
1.32561e-05
1.43361e-05
-1.43361e-05
1.23461e-05
-1.17694e-05
-5.76697e-07
1.23461e-05
7.26942e-06
5.83127e-06
-1.32903e-05
1.19507e-05
1.33966e-06
-1.32903e-05
8.98307e-06
-1.11729e-05
1.13029e-05
-1.30009e-07
-1.08359e-05
-3.36984e-07
6.35033e-06
5.27245e-06
1.12473e-05
-1.10051e-05
-2.42192e-07
1.17857e-05
-5.38325e-07
-1.05267e-05
1.22101e-05
-1.68341e-06
-1.13029e-05
7.76175e-07
6.57633e-06
5.05188e-06
3.62312e-06
1.04995e-05
-3.28691e-06
4.95901e-06
6.01672e-06
4.25736e-06
-4.52088e-06
4.73748e-06
1.22383e-05
6.46609e-06
1.14251e-05
-1.29067e-05
-2.98367e-08
1.29067e-05
-1.23919e-05
-5.14731e-07
-1.21665e-05
3.97072e-07
1.21665e-05
-1.29139e-05
7.47389e-07
1.28065e-05
9.78153e-06
2.16915e-06
9.78153e-06
6.18957e-06
1.42594e-05
-5.23401e-06
5.00726e-06
1.30647e-05
6.80254e-06
1.04257e-05
-5.02214e-06
5.92474e-06
1.29112e-05
8.14122e-06
1.31485e-05
5.59565e-06
6.42667e-06
1.32857e-05
-1.47626e-05
1.47626e-05
3.80005e-06
1.15556e-05
-7.86621e-06
1.16663e-05
6.56408e-06
1.32548e-05
-8.8382e-06
1.54023e-05
-5.86147e-06
6.4497e-06
1.38761e-05
5.56799e-06
8.10422e-06
-8.24984e-06
1.46995e-05
-5.50432e-06
3.80927e-06
1.22706e-05
9.20275e-06
5.17781e-06
1.53923e-05
1.11699e-05
-1.30868e-05
1.0782e-05
2.30474e-06
-1.22101e-05
-8.76614e-07
-1.17298e-05
-1.18405e-06
1.17298e-05
-1.08749e-05
-8.54885e-07
5.5753e-06
1.13047e-05
-1.19965e-05
1.14882e-05
5.08366e-07
-1.19965e-05
-1.46333e-05
2.24142e-06
-1.46333e-05
-6.5037e-06
1.2079e-05
5.39501e-06
4.12336e-06
1.2996e-05
-1.2996e-05
5.03208e-06
6.90268e-06
7.52616e-06
1.23888e-05
1.10051e-05
-8.09433e-06
-2.91082e-06
7.9494e-06
1.19237e-05
-6.29429e-06
1.42437e-05
-1.0782e-05
8.0323e-06
2.74971e-06
4.46009e-06
8.1499e-06
4.52837e-07
-1.13278e-05
6.26597e-06
1.06882e-05
-7.57921e-06
1.38452e-05
6.66246e-06
7.17277e-06
1.41886e-05
1.33833e-05
-1.08593e-05
-2.52399e-06
1.33833e-05
1.24096e-05
-1.24096e-05
9.22255e-06
3.18705e-06
9.61624e-07
6.21295e-06
6.37573e-06
-1.41383e-05
1.21238e-05
2.01455e-06
-1.41383e-05
9.9559e-06
-9.9559e-06
-1.8484e-06
1.18043e-05
1.53226e-06
2.7624e-06
3.74687e-07
4.08189e-07
1.21056e-05
-8.78914e-06
-3.31644e-06
1.21056e-05
8.35703e-07
1.11255e-06
1.11708e-05
-1.27451e-05
1.57425e-06
1.11708e-05
-1.11784e-05
1.26977e-05
-1.51927e-06
-7.58146e-09
1.26977e-05
-1.15542e-05
1.15142e-05
3.99633e-08
1.14352e-06
-1.3655e-05
9.09943e-07
-1.3655e-05
-1.17388e-06
1.15142e-05
1.26168e-05
-1.26168e-05
1.33429e-05
-1.33429e-05
-1.23945e-05
1.21538e-05
2.40677e-07
9.48395e-07
1.20079e-05
-1.26096e-05
6.01633e-07
1.20079e-05
-1.19465e-05
1.20416e-05
-9.50988e-08
6.14397e-08
1.20416e-05
-1.15217e-05
1.15943e-05
-7.26606e-08
5.19923e-07
1.24284e-05
-1.24284e-05
1.21538e-05
-1.32778e-05
1.29472e-05
3.30673e-07
-1.124e-06
1.35879e-05
-1.35879e-05
9.78317e-07
1.15943e-05
1.25839e-05
-1.25839e-05
-1.20339e-05
1.18152e-05
2.18761e-07
-1.29472e-05
9.13239e-07
1.28785e-05
-1.28785e-05
-1.28662e-05
1.28662e-05
1.33671e-05
-1.3659e-05
1.31021e-05
-1.31021e-05
1.18152e-05
1.23703e-05
-1.23703e-05
-1.31608e-05
1.31608e-05
1.30767e-05
-1.30767e-05
-1.32659e-05
1.32659e-05
-1.33742e-05
1.33742e-05
1.26755e-05
-1.26755e-05
1.11704e-05
-1.27177e-05
1.54731e-06
1.11704e-05
-1.30645e-05
1.30645e-05
-1.31362e-05
1.31362e-05
1.34449e-05
-1.34449e-05
1.15079e-05
-1.29302e-05
1.42231e-06
1.15079e-05
-1.20986e-06
1.32494e-05
-1.32494e-05
-1.52314e-05
1.53023e-05
-1.25829e-05
1.25829e-05
1.1647e-05
-1.2933e-05
1.28603e-06
1.1647e-05
-1.2832e-06
-1.31111e-05
1.28614e-05
2.49678e-07
-1.36634e-05
5.52309e-07
-1.36634e-05
-1.40439e-05
1.42449e-05
3.34756e-07
-1.33922e-05
1.31742e-05
-1.31742e-05
7.57815e-07
1.43814e-05
-1.35041e-05
1.95003e-05
-1.87425e-05
1.31164e-05
-1.27553e-05
1.27553e-05
1.16693e-05
-1.35413e-05
1.87197e-06
1.16693e-05
-1.2637e-06
1.28614e-05
-1.25861e-05
1.18565e-05
7.29579e-07
2.75387e-07
1.33985e-05
-1.33985e-05
-1.34547e-05
1.34547e-05
-2.05944e-06
1.32041e-05
-1.11447e-05
-1.1952e-05
-1.58926e-06
1.1952e-05
-1.20966e-05
1.44551e-07
1.18565e-05
-1.32431e-05
1.32431e-05
1.34683e-05
-1.34683e-05
-5.45789e-07
-1.76676e-05
1.82134e-05
1.32887e-05
-1.34131e-05
-4.21411e-07
1.11784e-05
2.11032e-06
4.8806e-07
-1.39012e-05
-1.21948e-05
9.82001e-08
1.21948e-05
-1.20926e-05
-1.02173e-07
-1.36206e-05
1.36206e-05
5.64544e-07
1.06139e-05
-1.39169e-05
1.22853e-05
1.63163e-06
-1.45483e-05
6.31355e-07
-1.45483e-05
1.17449e-05
-1.29782e-05
1.23332e-06
1.17449e-05
-1.36526e-05
1.42048e-05
-1.24031e-05
3.10489e-07
-1.24031e-05
-1.37488e-05
1.37488e-05
-3.60476e-07
1.38037e-05
-1.34432e-05
-1.22568e-05
1.29464e-05
-6.8955e-07
-1.22853e-05
2.85021e-08
-1.31989e-05
2.20694e-07
1.31989e-05
-1.22779e-05
-9.20929e-07
1.19071e-05
-1.1738e-05
-1.69103e-07
1.19071e-05
-1.28445e-05
1.20232e-05
8.21344e-07
-1.39257e-05
1.08119e-06
-1.39257e-05
-1.24319e-05
1.53969e-07
1.24319e-05
-1.38334e-05
1.40149e-06
-1.29464e-05
1.31458e-05
-1.99445e-07
1.20232e-05
-1.22135e-05
-1.61991e-06
1.22135e-05
-1.23138e-05
1.00316e-07
-1.1876e-05
1.37955e-07
1.1876e-05
-1.18193e-05
-5.66429e-08
-1.30154e-05
1.30154e-05
-1.16407e-05
8.02286e-07
1.08384e-05
-5.13604e-09
4.57498e-07
-1.20931e-05
1.3908e-05
-1.3908e-05
-1.28262e-05
1.33971e-05
-5.70931e-07
1.0818e-06
1.28005e-05
3.45324e-07
-1.28005e-05
1.15902e-05
1.21028e-06
-1.31071e-05
7.93294e-07
1.31071e-05
-1.26105e-05
-4.96582e-07
6.74375e-06
6.08759e-06
-1.28313e-05
-1.12929e-05
8.21465e-06
6.19004e-06
-1.44047e-05
-5.85488e-06
8.83141e-06
-1.68787e-05
8.37538e-06
6.21111e-06
-1.45865e-05
-6.14354e-06
-5.69488e-06
-1.17062e-05
-1.13184e-07
1.17062e-05
-1.07956e-05
-9.10561e-07
-1.33971e-05
1.1995e-05
1.40209e-06
1.27514e-05
-1.16117e-06
-1.27514e-05
1.35868e-05
-8.35435e-07
-1.29423e-05
3.3174e-07
1.29423e-05
-1.3007e-05
6.47596e-08
-5.30895e-06
-7.01204e-06
-1.75406e-05
5.65241e-06
6.04078e-06
-1.16932e-05
-1.13191e-05
-5.90336e-06
-6.64543e-06
-6.01218e-06
-7.33529e-06
-7.07564e-06
-3.79156e-06
-8.47291e-06
-5.95407e-06
7.57029e-06
-1.60432e-05
-1.03426e-05
3.26701e-06
8.1563e-06
5.80312e-06
-1.39594e-05
-1.49431e-05
1.27127e-05
-7.17733e-07
-1.27127e-05
1.35321e-05
-8.19314e-07
-1.23895e-05
1.12102e-05
1.1793e-06
-7.72429e-07
7.39125e-06
-1.49084e-05
1.12102e-05
-1.16226e-05
1.14955e-05
1.2709e-07
-4.12415e-07
-1.27229e-05
1.27229e-05
-1.28509e-05
1.28064e-07
-2.84155e-07
-1.43681e-05
1.14955e-05
-1.08731e-05
7.86586e-07
1.00865e-05
6.22464e-07
-1.027e-05
1.10566e-05
-1.58945e-07
-9.48859e-06
1.00865e-05
-1.00814e-05
1.08836e-05
-1.18058e-05
1.01023e-06
1.18058e-05
-1.29157e-05
1.10988e-06
-5.01693e-06
8.8556e-06
-8.56168e-06
-2.93923e-07
9.30431e-06
-4.48713e-07
-9.30431e-06
9.4581e-06
-1.53784e-07
9.83457e-06
-3.76473e-07
-9.83457e-06
1.03226e-05
3.04211e-06
1.05447e-05
-6.50196e-06
-7.5661e-06
-9.90122e-06
1.04658e-05
-9.90122e-06
6.11796e-06
7.19242e-06
-1.33104e-05
-1.22394e-05
-5.78525e-06
-9.02297e-06
1.04224e-05
-1.39945e-06
-9.02297e-06
1.44279e-06
7.21378e-06
-1.28539e-05
6.27748e-06
6.05201e-06
-1.23295e-05
8.63417e-06
-1.44194e-05
-1.40012e-05
1.00571e-05
3.65269e-07
-1.00571e-05
9.69667e-06
7.58529e-06
5.96307e-06
-1.35484e-05
-1.38882e-05
1.38882e-05
-8.8808e-06
-5.00735e-06
2.13388e-06
-1.08836e-05
1.01422e-05
7.41478e-07
1.41699e-05
-2.8172e-07
-1.28783e-05
1.28783e-05
1.29161e-06
8.81798e-06
8.78693e-07
-8.81798e-06
9.95323e-06
-1.13525e-06
2.73394e-08
-1.03443e-05
9.30532e-06
1.03896e-06
-1.03443e-05
-3.91053e-07
9.33148e-06
-2.61581e-08
-9.33148e-06
1.08192e-05
-1.48777e-06
1.26572e-05
-8.33056e-06
-4.32667e-06
1.26572e-05
-2.58464e-07
1.05326e-05
2.99943e-06
1.05326e-05
-1.02275e-05
1.09442e-05
-7.16666e-07
-1.02275e-05
5.91701e-07
-1.37923e-05
9.63727e-06
4.15503e-06
-1.37923e-05
1.01077e-05
8.3651e-07
-1.01077e-05
1.15722e-05
-1.46446e-06
1.95825e-06
5.83913e-06
-9.26524e-06
-4.3802e-06
8.85081e-06
-8.3101e-06
-5.40708e-07
8.56168e-06
2.89133e-07
6.99595e-06
-1.28435e-05
-7.10095e-06
1.05318e-05
-3.89613e-07
1.05318e-05
1.1499e-05
-9.67226e-07
-9.58884e-06
9.43997e-06
2.46648e-06
8.62867e-06
-8.96762e-06
3.3895e-07
8.3101e-06
3.18573e-07
9.34414e-07
-1.19485e-05
9.26832e-06
2.6802e-06
-1.19485e-05
1.15849e-05
-8.59192e-08
1.0021e-05
-1.20804e-05
8.96762e-06
1.05335e-06
-5.61778e-06
-1.20804e-05
1.11997e-05
-2.64475e-06
-8.5549e-06
-8.80757e-07
-3.80818e-06
9.92498e-06
1.17379e-05
1.13917e-05
-1.08151e-05
-5.76593e-07
1.14344e-05
-4.26951e-08
1.14344e-05
1.12515e-05
1.82898e-07
-6.83093e-06
-1.18257e-05
9.06778e-06
-1.21267e-06
-1.08151e-05
1.26989e-05
-1.35191e-05
8.20141e-07
1.88384e-06
2.01726e-06
1.09156e-05
3.35927e-07
1.09156e-05
-1.35191e-05
-1.23096e-05
1.23096e-05
1.19312e-05
-1.19312e-05
-1.20079e-05
1.20079e-05
8.64119e-06
-9.76143e-06
1.12025e-06
8.64119e-06
1.16489e-05
-1.16489e-05
-1.1795e-05
1.1795e-05
1.18339e-05
-1.18339e-05
-1.20619e-05
1.20619e-05
1.14025e-05
-1.14025e-05
5.31209e-07
-1.14959e-05
1.14959e-05
1.17845e-05
-1.27965e-05
1.01202e-06
2.88553e-07
-9.90873e-06
-1.49378e-06
1.13339e-05
-1.13339e-05
1.42516e-06
1.06228e-05
-1.06228e-05
1.12041e-05
-5.81321e-07
-1.29819e-07
1.13999e-05
-1.13999e-05
1.15373e-05
-1.3743e-07
9.14543e-07
-1.42234e-05
1.3085e-05
1.13838e-06
-1.42234e-05
-9.22876e-06
9.22876e-06
-1.17153e-05
2.48656e-06
1.22205e-05
-1.22205e-05
5.05136e-07
-1.27965e-05
1.21377e-05
-1.30158e-05
8.78064e-07
-6.58825e-07
1.17104e-05
1.37455e-06
-1.17104e-05
1.25642e-05
-8.53731e-07
9.7115e-06
-9.71096e-06
-5.3632e-10
9.7115e-06
-4.99347e-08
9.64574e-06
-9.64574e-06
-6.52255e-08
-9.86895e-06
-3.13946e-07
1.01829e-05
9.86895e-06
-1.02599e-05
3.90931e-07
1.2478e-05
-1.16703e-05
-8.07737e-07
1.30158e-05
-5.37746e-07
1.17491e-05
8.15051e-07
-1.17491e-05
1.26872e-05
-9.38062e-07
9.8686e-06
-1.01932e-05
3.24617e-07
9.8686e-06
-3.91285e-07
1.11993e-05
-1.11993e-05
1.00612e-06
1.16703e-05
-1.20921e-05
4.21854e-07
1.0103e-05
-1.03048e-05
2.01834e-07
1.0103e-05
1.17487e-05
9.38529e-07
-1.17487e-05
1.26217e-05
-8.73003e-07
9.60745e-06
-9.8557e-06
2.4825e-07
9.60745e-06
-6.97349e-07
1.02053e-05
-9.86663e-06
-3.38619e-07
1.02053e-05
3.4955e-07
-1.01281e-05
2.61481e-07
1.01281e-05
-9.81346e-06
-3.14656e-07
-1.33439e-05
1.25176e-06
-1.33439e-05
5.07197e-07
-1.17172e-05
1.27462e-05
-1.02905e-06
-1.17172e-05
9.04469e-07
-1.04526e-05
1.32283e-07
-9.99684e-06
-4.55757e-07
9.99684e-06
-1.02634e-05
2.66575e-07
1.16767e-05
-1.16767e-05
1.08721e-05
-3.31138e-07
-1.0541e-05
1.08721e-05
6.08672e-07
-1.09402e-05
1.25881e-05
-1.64786e-06
-1.09402e-05
1.80599e-06
1.03565e-05
-1.02944e-05
-6.21351e-08
1.03565e-05
-1.03495e-05
5.50467e-08
1.03495e-05
-1.02327e-05
-1.16769e-07
-1.00176e-05
-2.15077e-07
1.00176e-05
-1.06569e-05
6.39273e-07
1.19533e-05
-1.1987e-05
3.37457e-08
1.19533e-05
9.98424e-06
-9.98649e-06
2.24592e-09
9.98424e-06
-6.72647e-07
-1.14513e-05
1.14513e-05
1.13681e-06
1.05611e-05
-1.04293e-05
-1.31792e-07
1.05611e-05
5.74639e-07
-1.01324e-05
-2.96979e-07
1.01324e-05
-1.0914e-05
7.81625e-07
1.01192e-05
-1.04209e-05
3.01741e-07
1.01192e-05
-7.9482e-07
-1.28609e-05
8.7385e-07
1.20449e-05
-1.2524e-05
4.79054e-07
1.28609e-05
-8.15966e-07
-1.09246e-05
5.03734e-07
1.09246e-05
-9.1063e-07
-1.0014e-05
1.16163e-05
-1.16163e-05
-1.0524e-05
1.20608e-07
-1.02842e-05
-2.39779e-07
1.02842e-05
-1.03804e-05
9.62069e-08
1.15681e-05
-1.25292e-05
9.61145e-07
1.2524e-05
-9.55874e-07
-9.90756e-06
-4.72848e-07
9.90756e-06
-9.98702e-06
7.94667e-08
-1.34823e-05
1.30009e-05
4.81415e-07
-1.34823e-05
1.02917e-05
-1.01173e-05
-1.74374e-07
1.02917e-05
3.04681e-07
-1.02023e-05
8.49396e-08
1.02023e-05
-9.93874e-06
-2.63527e-07
1.02341e-05
-1.03617e-05
1.27611e-07
1.02341e-05
2.95314e-07
-1.14149e-05
1.05319e-06
-1.14149e-05
1.20142e-05
-1.20337e-05
1.95184e-08
1.25292e-05
-5.15015e-07
1.0147e-05
-1.05507e-05
4.0365e-07
1.0147e-05
-1.16625e-05
1.11182e-06
-1.16625e-05
1.02081e-05
-1.04187e-05
2.10568e-07
1.02081e-05
-1.02434e-05
-1.75279e-07
1.02434e-05
-1.03266e-05
8.32439e-08
1.24065e-05
5.94393e-07
-1.24065e-05
1.0994e-05
1.41251e-06
-3.67362e-07
1.0311e-05
-1.03396e-05
2.8598e-08
1.0311e-05
9.75937e-06
-1.06856e-05
9.26241e-07
9.75937e-06
-5.80211e-07
1.23879e-05
-1.23505e-05
-3.74219e-08
1.20337e-05
3.54195e-07
-1.1147e-05
4.61356e-07
-1.1147e-05
-1.00243e-05
1.00243e-05
-1.01301e-05
1.01301e-05
-9.61555e-06
9.61555e-06
1.22439e-05
-1.24994e-06
-1.22439e-05
1.30807e-05
-8.36759e-07
1.1744e-05
-1.2007e-05
2.62968e-07
1.23505e-05
-6.06521e-07
-1.10489e-05
2.82761e-06
-1.5483e-05
4.43409e-06
-1.5483e-05
1.15463e-05
1.53433e-06
1.15463e-05
-1.2007e-05
-1.34061e-05
1.34061e-05
1.06503e-05
-3.03526e-06
-2.75579e-06
5.80547e-06
5.20551e-06
-1.1011e-05
5.78893e-06
-1.18281e-05
7.36089e-06
5.37841e-06
-1.27393e-05
-8.38114e-06
-6.53487e-06
-5.89166e-06
-7.55898e-06
-1.22403e-05
-5.60833e-06
-4.88259e-06
-7.51954e-06
-4.34074e-06
-8.05613e-06
-4.9326e-06
-7.59193e-06
-7.55272e-06
-5.00622e-06
-7.7636e-06
-4.98565e-06
-7.9963e-06
-5.1863e-06
-7.7986e-06
-4.85339e-06
-4.77086e-06
-7.53261e-06
-8.48913e-06
-4.68279e-06
-4.56096e-06
7.16367e-06
-1.53415e-05
-1.30501e-05
-4.52405e-06
7.11978e-06
-1.52735e-05
8.48141e-06
-1.30055e-05
-4.74952e-06
-7.9439e-06
-8.07976e-06
-7.07424e-06
-4.73354e-06
-7.08235e-06
-4.53026e-06
5.22824e-06
-8.45065e-06
3.22241e-06
6.96093e-06
-1.73269e-06
-1.27015e-05
5.37502e-06
7.32652e-06
-4.82453e-06
-3.62612e-06
3.40037e-07
-1.30416e-05
-1.31194e-05
1.34594e-05
5.01172e-06
-9.24147e-06
4.22975e-06
6.86087e-06
-1.84915e-06
-1.55789e-06
3.59423e-06
-6.62008e-08
-1.70082e-05
1.70744e-05
1.40027e-05
-1.40689e-05
-1.21432e-08
8.95462e-07
-1.79927e-05
9.84487e-07
1.22322e-05
-1.54415e-05
3.20928e-06
-8.21524e-07
-1.67783e-06
-1.37636e-05
-1.57467e-05
-3.54828e-06
-5.69319e-06
-1.03674e-05
8.51822e-06
-5.35234e-06
4.40183e-06
-6.07378e-07
-3.42895e-06
9.363e-06
-5.93405e-06
-4.55155e-06
4.04008e-06
5.32293e-06
4.81579e-06
-1.13488e-06
-1.24001e-05
1.3535e-05
1.31941e-05
-1.4329e-05
-5.99425e-07
-1.33708e-05
1.46934e-05
-1.29995e-05
8.89877e-06
-1.03277e-05
-5.45041e-06
7.24645e-06
-1.79604e-06
8.05751e-08
1.42994e-06
1.76271e-05
4.71321e-06
-2.23403e-05
2.45127e-06
4.79518e-06
1.29463e-05
-2.11131e-06
-1.0835e-05
7.84573e-06
1.47423e-05
-9.64175e-06
1.22915e-05
-1.44028e-05
-6.75379e-07
-3.26839e-08
4.65297e-07
6.70505e-06
1.10762e-06
-5.19387e-06
7.0552e-06
-2.07561e-06
-4.97959e-06
2.22877e-06
1.11747e-05
-1.44626e-05
-1.2821e-07
-1.3632e-05
-1.4531e-05
9.50717e-07
6.71587e-06
-7.66659e-06
-1.38858e-05
4.3292e-06
-9.30879e-06
-4.41296e-06
-2.59292e-06
-6.49404e-06
1.38838e-05
5.90041e-06
-4.00309e-06
-1.24294e-06
1.12627e-05
-1.93744e-06
2.83279e-06
2.45631e-06
7.40636e-06
1.40143e-06
-2.97029e-06
-4.90853e-06
1.23149e-05
-3.39969e-06
1.11927e-05
7.83271e-06
-4.00094e-06
2.41203e-06
4.1274e-06
-9.55386e-06
4.64533e-06
-7.14182e-06
-1.50288e-05
-1.65371e-06
1.66825e-05
1.09549e-05
-8.35664e-06
-2.11544e-06
-6.61667e-06
8.73211e-06
7.46814e-06
-7.13231e-06
7.40577e-07
-7.35725e-06
1.37985e-05
-1.30549e-05
-1.10115e-06
1.50215e-05
1.29972e-05
-1.40983e-05
-4.98375e-07
1.34956e-05
-1.34739e-05
1.29756e-05
-7.83536e-06
9.53298e-06
-1.69763e-06
8.96748e-07
-1.51276e-05
-2.05529e-06
8.16089e-06
-6.1056e-06
7.0675e-06
-9.12278e-06
3.23985e-06
4.92104e-06
-7.22149e-06
6.57224e-06
6.49251e-07
5.6094e-06
-5.7634e-06
-1.70586e-06
8.27811e-06
7.14339e-06
1.95536e-06
6.32275e-06
1.5014e-05
-2.55908e-06
-1.2455e-05
8.50265e-07
-1.58294e-06
1.61414e-05
-1.87004e-05
-1.00107e-06
1.40165e-06
-6.49251e-06
6.77899e-07
6.72323e-06
-8.32524e-07
-5.8907e-06
2.43169e-06
-2.18566e-05
2.32872e-05
7.87476e-06
-8.70729e-06
-3.16495e-05
1.1754e-05
-2.4209e-05
1.25534e-05
-7.99441e-07
3.40405e-06
-9.29475e-06
-5.68137e-06
-2.52302e-06
-6.77174e-06
4.69506e-06
1.84349e-06
-6.53855e-06
6.21785e-06
-1.52279e-06
9.86301e-06
-8.01952e-06
-1.24314e-06
-5.29541e-06
7.79034e-06
-5.92439e-06
-1.86595e-06
6.87662e-07
9.97078e-07
-9.95838e-06
4.03399e-06
-1.86279e-06
-8.0956e-06
1.14761e-05
-7.44215e-06
3.04102e-06
8.2305e-06
-7.05678e-06
-1.17373e-06
6.56281e-06
1.66769e-06
-1.73091e-06
7.01889e-06
6.81577e-06
3.13899e-06
2.84082e-06
-8.0964e-06
1.13241e-05
-3.22767e-06
9.77376e-06
2.09855e-06
-1.94734e-06
2.1611e-06
7.61266e-06
3.14299e-07
-2.46509e-06
1.45651e-05
1.41508e-05
1.50666e-05
-4.75927e-06
1.34856e-05
1.581e-06
-8.7218e-06
6.25402e-07
-4.7625e-06
-3.9593e-06
-9.14713e-06
8.79767e-06
8.31359e-07
2.42985e-06
1.92444e-06
7.90869e-06
8.53409e-06
1.06952e-05
-3.81623e-06
-4.37276e-06
8.189e-06
-8.3797e-06
4.56347e-06
-4.65826e-06
-3.72144e-06
-6.0501e-06
9.0045e-06
-1.08627e-05
-8.76368e-06
1.96263e-05
-1.17701e-05
1.4393e-05
1.17188e-05
-4.7529e-06
-6.96594e-06
3.18835e-06
8.53049e-06
7.75182e-06
7.35567e-06
-1.61194e-05
3.65327e-06
4.44737e-06
6.44827e-06
8.47434e-06
6.68641e-06
-1.11503e-05
6.77758e-06
8.54935e-06
-1.75805e-05
1.99008e-05
-2.32031e-06
2.04581e-06
-2.35883e-06
8.89997e-06
-6.54114e-06
5.03205e-06
-7.39088e-06
6.37342e-06
-1.34137e-06
-4.23635e-06
-3.15453e-06
-1.96223e-06
1.04683e-05
-8.5061e-06
-4.87214e-06
-7.52226e-06
1.23944e-05
-6.83436e-06
2.67795e-06
-6.12792e-06
-6.70399e-06
-3.40149e-06
-2.77429e-06
-9.23841e-06
-1.40927e-06
4.47086e-06
2.9461e-06
-1.21845e-05
-3.79205e-06
-7.39573e-06
-1.21958e-05
-1.18814e-05
-5.75418e-06
7.29294e-06
-8.9353e-06
-5.26861e-06
1.29553e-05
-7.68669e-06
-1.48028e-06
1.37619e-05
-1.22816e-05
-1.34502e-05
1.30232e-05
1.03316e-05
-1.05777e-05
3.33495e-06
6.99668e-06
-4.46366e-06
7.79861e-06
6.66657e-07
1.26955e-05
7.66334e-06
5.42007e-07
1.24721e-05
-8.65008e-06
9.19209e-06
-9.73227e-06
5.11179e-06
7.65745e-06
7.92054e-07
-8.4495e-06
-2.42875e-06
7.80964e-06
-5.38089e-06
5.2287e-06
8.83633e-06
-3.60763e-06
-6.83426e-06
-1.23897e-06
8.07322e-06
-4.41558e-06
-2.41867e-06
-7.95658e-06
3.541e-06
-8.00563e-06
5.58696e-06
6.94226e-06
-5.6439e-08
-6.88582e-06
5.78446e-06
1.1578e-06
-9.01206e-06
8.95562e-06
-7.64997e-06
7.64153e-07
-9.44738e-06
2.68332e-06
6.76406e-06
-1.66242e-07
5.81872e-07
-5.73043e-06
8.41375e-06
3.2118e-07
7.76843e-07
7.63691e-06
-1.03128e-08
1.17063e-05
-7.41104e-07
8.10114e-07
6.64771e-06
-5.28526e-06
6.99889e-06
-1.71364e-06
3.20037e-07
1.12631e-05
1.71257e-05
8.07244e-08
6.91817e-06
7.62519e-06
-2.13606e-06
9.05423e-06
-3.11284e-06
-4.35955e-06
7.47239e-06
5.87184e-06
-2.25906e-06
-3.61279e-06
2.759e-06
6.80929e-06
-1.51678e-06
-5.29251e-06
1.92892e-06
4.88037e-06
2.712e-06
-3.04214e-06
6.35885e-06
-1.47848e-06
3.8635e-06
5.20735e-06
9.92411e-06
-1.25262e-06
-8.67149e-06
9.35142e-06
5.72689e-07
-1.02497e-05
8.99708e-06
7.43862e-06
-8.41613e-06
9.77506e-07
7.79379e-06
-3.55173e-07
-8.38464e-06
-3.14826e-08
6.96877e-06
3.1058e-06
-1.00746e-05
2.16854e-07
6.75191e-06
1.01841e-05
-9.96723e-06
-4.74589e-06
6.54533e-06
-7.87176e-06
8.531e-06
-6.59243e-07
-5.54889e-06
-2.32287e-06
8.795e-06
-2.63996e-07
-2.66599e-06
7.89617e-06
3.95466e-06
3.13934e-06
3.15064e-06
-1.39292e-05
7.63844e-06
6.29076e-06
-6.75007e-06
-7.17913e-06
-6.71994e-06
5.00195e-06
7.65791e-06
5.87378e-06
5.15847e-06
6.95164e-06
3.43241e-06
-5.20004e-06
-7.21685e-06
3.44289e-06
-4.45148e-06
-7.91745e-06
-3.30985e-06
-8.13836e-06
-6.46904e-06
-6.08611e-06
-7.06918e-06
6.40554e-06
-1.24917e-05
-5.37244e-06
-1.02785e-05
-2.21312e-06
7.41107e-06
-1.76896e-05
-2.79315e-06
9.95392e-06
-7.16077e-06
7.24154e-06
-1.00347e-05
7.1322e-06
1.0934e-07
5.6178e-07
-7.69754e-06
7.13576e-06
-6.20417e-06
4.90316e-06
6.4101e-07
-8.33855e-06
-3.33267e-06
-4.23489e-06
7.56756e-06
-8.58856e-06
8.36169e-06
7.94316e-06
-1.2178e-05
6.96669e-06
-1.38538e-05
6.88706e-06
3.45897e-06
-7.18725e-06
-5.51729e-06
-3.1016e-06
-3.60671e-06
-7.1323e-06
-7.27148e-06
-7.26278e-06
-5.48731e-06
6.90837e-06
-1.41711e-05
-6.50665e-06
-7.20445e-06
-5.25503e-06
-7.38042e-06
4.41533e-06
5.93696e-06
-1.03523e-05
1.07e-05
-6.2847e-06
8.04207e-06
-2.10511e-06
-7.67722e-06
-2.67507e-06
-1.83874e-06
-7.32273e-06
9.16147e-06
-7.43782e-06
7.49788e-06
-6.00629e-08
9.27655e-06
-7.70768e-06
-1.56887e-06
6.59889e-06
-7.35228e-06
7.53388e-07
-1.65187e-06
-8.79959e-06
1.04515e-05
4.94702e-06
-4.15378e-06
-3.1985e-06
7.11768e-06
-6.3643e-06
-3.29607e-06
4.88343e-06
7.75103e-06
1.15022e-05
-1.35145e-05
2.01235e-06
-6.8616e-06
1.83638e-05
-6.89685e-06
-6.61768e-06
-7.19957e-06
5.89837e-06
-7.49949e-06
5.00517e-06
-3.33638e-06
2.43107e-06
4.77962e-06
6.73823e-06
-9.71246e-06
9.84176e-06
-1.29296e-07
-7.56136e-06
-2.1511e-06
-3.87852e-07
-4.13075e-08
-1.10462e-05
8.89511e-06
-1.48014e-06
7.65197e-06
1.05873e-06
-1.56731e-06
-1.74697e-06
-8.3481e-06
1.00951e-05
7.86036e-06
-6.42114e-06
-1.92697e-06
-4.41368e-07
8.9598e-06
1.13527e-06
-2.53455e-06
9.83862e-06
1.0379e-05
3.4557e-06
3.16441e-06
-6.94473e-06
-1.34913e-06
8.29387e-06
-5.23311e-07
-6.42142e-06
9.20754e-06
-9.73086e-06
3.48662e-06
-9.90804e-06
2.2452e-06
-9.55342e-06
7.30822e-06
-4.58822e-06
6.83343e-06
4.2983e-06
-8.88653e-06
-1.7004e-06
8.53383e-06
-1.09728e-05
1.62293e-06
9.34984e-06
-4.99991e-07
-1.57281e-06
-7.67987e-06
9.3028e-06
-1.80644e-06
-7.17529e-07
1.00203e-05
-9.30531e-06
2.82768e-06
6.47763e-06
-5.29936e-07
-8.77537e-06
-8.16532e-06
8.41222e-06
-8.80427e-06
2.88953e-08
-1.79873e-06
6.26527e-06
7.18093e-06
3.38407e-06
4.01709e-06
5.57074e-06
2.9718e-06
-1.0474e-07
1.00467e-05
-9.94194e-06
7.77581e-06
2.01176e-06
-9.78757e-06
7.67107e-06
-6.48726e-06
3.68506e-06
-7.21437e-06
2.16347e-06
-1.31022e-05
-3.06826e-06
-3.29864e-06
-6.10483e-06
-6.92353e-06
-7.38652e-06
3.75679e-06
-7.04685e-06
-8.16656e-06
-2.29955e-06
-3.99584e-06
-5.98719e-06
-1.56738e-06
1.83884e-06
-7.52176e-06
5.68292e-06
-7.43064e-06
6.88749e-06
5.4315e-07
-5.5918e-06
9.0658e-06
-4.90998e-06
-4.15582e-06
2.01051e-06
7.0553e-06
-1.03031e-05
5.39308e-06
-6.42829e-06
5.97229e-06
4.55994e-07
1.52232e-06
-7.9506e-06
-3.02107e-06
8.99336e-06
7.6004e-06
-7.14441e-06
-1.00746e-05
8.82892e-06
1.24566e-06
-8.50001e-06
-1.57457e-06
-5.7696e-07
-1.29255e-07
4.84826e-06
-2.8098e-06
7.68178e-06
-1.21436e-06
1.0946e-05
3.86415e-06
2.69984e-06
7.42941e-06
6.82311e-06
7.76393e-06
1.09689e-05
6.82668e-07
-1.16516e-05
6.97514e-06
-3.56846e-06
-3.55299e-06
-3.72882e-06
-2.91931e-06
-9.39987e-06
1.00825e-05
-6.87302e-06
-4.29553e-06
-2.4481e-06
-1.04017e-05
2.00243e-06
8.39927e-06
-1.57811e-06
1.87643e-06
-7.41692e-06
9.41935e-06
-9.52965e-07
1.94557e-08
9.3999e-06
3.12798e-06
-7.73686e-06
-7.29125e-06
-3.7595e-06
-3.41874e-06
4.92524e-06
-3.50221e-06
-4.19304e-06
-7.09909e-06
-1.39691e-05
3.04918e-06
-8.90194e-06
7.56075e-06
-5.75975e-06
-1.2896e-05
3.99407e-06
-3.28224e-06
-9.61377e-06
-1.14428e-06
1.28901e-05
-1.17458e-05
-1.26469e-05
-1.17741e-05
-4.53494e-06
8.69706e-06
-5.47627e-06
-3.14912e-06
7.76515e-06
7.1293e-06
3.19679e-06
3.20743e-06
-4.88023e-06