/*--------------------------------*- C++ -*----------------------------------*\
  =========                 |
  \\      /  F ield         | OpenFOAM: The Open Source CFD Toolbox
   \\    /   O peration     | Website:  https://openfoam.org
    \\  /    A nd           | Version:  6
     \\/     M anipulation  |
\*---------------------------------------------------------------------------*/
FoamFile
{
    version     2.0;
    format      ascii;
    class       volScalarField;
    location    "0.5";
    object      p;
}
// * * * * * * * * * * * * * * * * * * * * * * * * * * * * * * * * * * * * * //

dimensions      [0 2 -2 0 0 0 0];

internalField   nonuniform List<scalar> 
127306
(
0.0175725
0.0172357
0.0178055
0.0175755
0.0349402
0.0348712
0.03509
0.0228618
0.0228635
0.0234045
0.0230192
0.0234272
0.048685
0.0486954
0.0486924
0.0488017
0.0487405
0.0177895
0.017534
0.0177568
0.0179367
0.0240443
0.0235144
0.0232955
0.0491535
0.048866
0.0491348
0.0492171
0.0244942
0.0488482
0.0488253
0.0489215
0.0489264
0.024747
0.024726
0.0246648
0.0489467
0.0489912
0.0338349
0.0249187
0.0249024
0.0247324
0.0485187
0.0485866
0.048628
0.0486045
0.0171258
0.0173783
0.0174624
0.0254308
0.0252233
0.0137222
0.0143183
0.013991
0.0139098
0.013861
0.0169475
0.0170833
0.0170276
0.0256478
0.0256894
0.0255431
0.025942
0.025893
0.0256577
0.000103932
7.62057e-05
-0.000418349
-0.0002926
-0.000194802
0.0265109
0.0261396
0.0258714
-9.13105e-06
-0.000131967
-4.5127e-05
-6.99389e-05
0.0339437
0.0340216
0.03404
0.0266239
0.0267026
0.0266971
-0.000130272
-0.0001804
-0.000259765
2.81571e-06
0.0268808
0.0268068
0.0265647
6.41939e-06
1.37841e-05
0.0272981
0.0273029
0.0268742
0.000299997
0.000146067
0.000173646
-7.39993e-05
0.0166695
0.0166659
0.0168066
0.027807
0.0271489
0.0269244
0.018852
0.0192723
0.0194465
0.019467
0.0275034
0.0274075
0.0279355
0.0142025
0.0137478
0.0280758
0.0282356
0.0282469
0.0188177
0.018861
0.0234985
0.022665
0.027745
0.027956
0.0278917
0.0283113
0.0414096
0.041268
0.0412527
0.041058
0.033604
0.033501
0.0335307
0.0412551
0.0419005
0.0412417
0.0312836
0.0313319
0.0320664
0.0316251
0.0279755
0.0280151
0.0280189
0.0280773
0.0249866
0.0248532
0.0251015
0.0250813
0.0276958
0.0275976
0.0409638
0.0410761
0.022431
0.0225344
0.0224594
0.0227575
0.0227558
0.0226315
0.0229918
0.0275424
0.0423863
0.0223645
0.0265238
0.0264111
0.0251109
0.0407673
0.0413625
0.0249901
0.0422893
0.0199827
0.019876
0.0247007
0.000279856
0.000271669
0.000283199
-1.29879e-05
0.0243656
2.72069e-05
7.96847e-05
0.0239699
0.0433956
-0.000228345
-8.83588e-05
-0.000250902
-0.000203348
0.0235993
0.0400081
0.0403105
0.0400621
-7.19838e-05
-3.98774e-05
0.0484608
0.0483732
0.0483976
0.0484701
0.0162277
0.0163117
0.0166142
0.0483764
0.0485101
0.0432901
0.0434267
0.0431196
0.0489251
0.0491201
0.0493195
0.0487285
0.0232427
0.0216369
0.0226727
0.0400617
0.0399208
0.0399688
0.04891
0.0488311
0.0217342
0.0220997
0.0219222
0.0212351
0.0276058
0.0277643
0.0213692
0.0430405
0.0436798
0.0428936
0.0274457
0.0276621
0.027526
0.0206419
0.0397191
0.0394654
0.0278374
0.0278004
0.0277413
0.0200903
0.028096
0.0193554
0.0192114
0.0398898
0.0189461
0.018534
0.0441963
0.0181622
0.0390413
0.0171766
0.0442352
0.0163553
0.0164045
0.0388178
0.0443728
0.0384045
0.0445864
0.0379903
0.0385236
0.0163656
0.0451004
0.0158523
0.0483084
0.0486027
0.0485349
0.0483836
0.0483642
0.037711
0.0375767
0.0485752
0.0486287
0.0487252
0.0486845
0.0286724
0.0283025
0.0455857
0.0453731
0.0450478
0.0486505
0.0291022
0.0289988
0.0289046
0.0485521
0.030188
0.030823
0.0375899
0.0486186
0.0302994
0.0486128
0.0154817
0.0158243
0.0159068
0.046366
0.045571
0.0456076
0.0487921
0.0488453
0.0486478
0.0312642
0.0486545
0.0313752
0.0310677
0.0486393
0.0316723
0.0321344
0.0322656
0.0372329
0.0486121
0.0467578
0.0486283
0.0159533
0.0486549
0.0157964
0.0486549
0.0487874
0.0488025
0.0150489
0.0466624
0.0466524
0.0486243
0.0366612
0.0370682
0.0485725
0.0153447
0.015503
0.0155098
0.0485726
0.0342612
0.0338982
0.0341139
0.015323
0.015335
0.0152935
0.0485562
0.0487508
0.0489065
0.0489258
0.0492283
0.0491836
0.0490756
0.0324767
0.0320066
0.0321317
0.0467664
0.0467242
0.0467556
0.0493749
0.0361161
0.0360666
0.048773
0.0491605
0.0492034
0.0491375
0.0491407
0.0489159
0.0490964
0.0488678
0.0492446
0.0145987
0.0489587
0.0489037
0.0488247
0.0488356
0.0485349
0.0487243
0.0486416
0.0487871
0.0488221
0.049003
0.0484905
0.0486906
0.048745
0.0144861
0.0147213
0.0151611
0.0472644
0.0475857
0.0476066
0.0486737
0.0358854
0.0363378
0.0324825
0.0333025
0.0487233
0.0485369
0.0487658
0.0144078
0.0485169
0.0485973
0.0345967
0.0344382
0.0490168
0.049034
0.0146362
0.0147579
0.0487497
0.0478266
0.0488552
0.0489435
0.0490208
0.0484688
0.0485813
0.0330418
0.0328893
0.0350037
0.0350288
0.0349801
0.0485533
0.0143887
0.0150083
0.0354778
0.0354925
0.0354697
0.0138094
0.033543
0.0142892
0.0477898
0.0478952
0.0278308
0.0347874
0.00689371
0.00691197
0.00685037
0.00707564
0.00663381
0.00658493
0.00652447
0.00747196
0.00793869
0.0481324
0.00662109
0.00787816
0.00651346
0.00560847
0.0061497
0.00732711
0.00718338
0.00692428
0.00714528
0.00693289
0.00667019
0.00671316
0.00832892
0.00565923
0.0056305
0.00582501
0.00782913
0.00768347
0.00644908
0.0086703
0.005362
0.00530341
0.00550922
0.00767803
0.00623985
0.0267786
0.00870789
0.00507174
0.00817778
0.00557453
0.00906938
0.00498615
0.00465674
0.00844082
0.00967037
0.0093679
0.0048987
0.0036655
0.00852601
0.0101515
0.0101828
0.00999628
0.00894706
0.0247347
0.00388614
0.0105556
0.0105358
0.0104873
0.00436413
0.00497016
0.00505409
0.0233743
0.0233621
0.00946391
0.0228672
0.0230422
0.0228123
0.00369678
0.0104787
0.0106873
0.0108079
0.00449356
0.00422734
0.004429
0.00933062
0.00298106
0.0264661
0.0109835
0.0112746
0.0112687
0.00385761
0.00271005
0.0104075
0.0254219
0.025573
0.0250514
0.0258505
0.0114406
0.0116139
0.0115268
0.00374161
0.0252071
0.00207997
0.00261641
0.00293514
0.0105143
0.0104599
0.0270142
0.0118411
0.0121059
0.00288709
0.0247553
0.00246024
0.00249522
0.00224035
0.0106843
0.0108209
0.0108507
0.0121031
0.0118966
0.00263825
0.00286246
0.00310464
0.0109333
0.0112025
0.0109279
0.00183322
0.00224918
0.00255884
0.0119489
0.0121409
0.0123255
0.0123737
0.0125707
0.0126931
0.0026459
0.0213706
0.0213591
0.00231197
0.0015713
0.00207172
0.00113388
0.00172441
0.00144104
0.0120377
0.0123211
0.0121489
6.6264e-05
-0.000105725
-0.000305071
-0.000175646
3.92939e-05
5.6012e-05
2.78383e-05
1.52641e-05
0.012794
0.0128503
0.0128877
0.00140445
0.00141594
0.00162479
0.00111358
0.00163678
0.0125943
0.0129121
0.012874
0.000113489
6.57184e-05
-0.000377484
-0.000129755
-4.68706e-05
2.57191e-05
5.27807e-05
-5.54221e-05
2.92205e-06
8.08085e-05
-8.0803e-05
9.51633e-05
0.000897361
0.00103337
0.00127889
0.0223347
0.0227271
-0.0001605
0.0223151
0.0219356
0.0222427
0.0128384
0.012885
0.012928
-5.8456e-06
0.0214892
0.0212369
0.0212087
0.0213038
0.0209508
0.0213326
0.0212969
0.0214336
0.012879
0.01286
0.012949
-6.86499e-05
0.0261454
0.0260043
0.0258745
0.0259381
0.0258546
0.0259529
0.0260562
0.000498506
0.000105546
0.0254158
0.0255251
0.0256342
-1.96264e-05
0.00010554
-0.0002453
0.0255166
0.0257065
0.0255038
-6.69403e-05
-0.000180741
-5.89235e-05
-3.72739e-05
0.000104639
0.0251416
0.0250116
0.0249954
-0.000173526
-0.000277387
0.0138008
0.0139191
0.0142905
0.0209648
0.0211016
0.0136716
0.0135793
0.0134875
0.0248897
0.0247087
0.0249873
0.0130214
0.0241698
0.0241558
0.0243355
0.0241583
0.0239651
0.024255
0.013801
0.0134914
0.0131163
0.000513562
0.000627063
0.0234117
0.0235022
0.0234955
0.000133504
0.000536186
0.0232703
0.0230368
0.0232444
0.0228698
-0.000156355
-0.000228702
0.0265857
0.0263235
0.0263868
-3.073e-05
-9.09215e-05
0.0204931
0.0206607
0.0205595
0.0268592
-0.000279049
0.0270987
0.0268242
0.0267498
0.0140033
0.000312302
0.000790339
0.0202681
0.0202271
0.0268409
0.0268335
0.0272054
8.59854e-05
0.026975
0.027005
0.0268579
0.0276684
0.0275796
0.0417172
0.0413567
0.0413703
0.0412039
0.0277636
0.0280627
0.0416166
0.0421171
0.0414469
-0.000213755
0.0410112
0.0407919
0.0283546
0.042609
0.0407869
0.0425725
0.0403542
0.0226715
0.0226254
0.0428707
0.0401162
0.0432729
0.0399207
0.0179779
0.0177826
0.0431972
0.0434033
0.0433553
0.0181513
0.0182061
0.018208
0.0186726
0.0186299
0.01841
0.0190545
0.0189081
0.0186181
0.0392293
0.0397801
0.0189261
0.0191119
0.0194573
0.0193624
0.0437376
0.0439995
0.0438473
0.0384662
0.0390236
0.038859
0.0229253
0.0229562
0.022727
0.0230075
0.0231198
0.0231962
0.0233175
0.0232508
0.0443567
0.0438924
0.0440341
0.0385553
0.0386487
0.0387248
0.0236844
0.0237586
0.0235142
0.0236452
0.0237347
0.0442517
0.0442424
0.0238885
0.023829
0.0380427
0.0383436
0.0383044
0.0241623
0.0243079
0.0240982
0.0244805
0.0244541
0.0243164
0.0245731
0.0246359
0.0247037
0.0447282
0.0450756
0.0246971
0.0381651
0.038122
0.0378705
0.0251602
0.0254204
0.0254472
0.0255834
0.0450217
0.0257204
0.0256125
0.0254869
0.0378259
0.0380183
0.037705
0.0259529
0.025977
0.026166
0.0263003
0.0262797
0.0264054
0.0264244
0.0263993
0.0450699
0.0452215
0.0266969
0.0268073
0.0266556
0.0367998
0.0371385
0.0269517
0.0268473
0.0267186
0.0271043
0.0272014
0.0271506
0.0273725
0.0275183
0.0273884
0.0455038
0.0457376
0.0457348
0.0458268
0.0274919
0.0278037
0.0277596
0.0370349
0.0280163
0.028228
0.0284226
0.0283451
0.0460425
0.0460414
0.0460088
0.0286207
0.0287765
0.0287841
0.0360552
0.0366259
0.029051
0.0291343
0.0289162
0.0292513
0.0294493
0.0293826
0.0294511
0.0293768
0.0294602
0.0297492
0.0301205
0.0466737
0.0463908
0.0463046
0.0300279
0.0300506
0.0302738
0.0307049
0.0308614
0.03072
0.0309049
0.0310487
0.0309579
0.035308
0.035573
0.0353516
0.0312858
0.0320967
0.0319483
0.0320305
0.0320257
0.0321596
0.0467892
0.0467192
0.0468148
0.0325267
0.0329159
0.0330935
0.0332685
0.0335246
0.0353656
0.0349191
0.0354222
0.0472682
0.0467963
0.0468706
0.0332344
0.0337967
0.0342636
0.0344533
0.0346351
0.0479736
0.0474966
0.0477238
0.0474589
-0.000527802
-0.000268965
-0.000542257
-0.000130207
0.000134655
-0.000109416
-0.000267515
-5.38978e-05
-1.08772e-05
-0.000153908
9.80094e-05
-0.000178121
3.19515e-05
0.000112968
-0.000100016
-0.000107697
-0.00023196
-3.28158e-05
-0.000327619
6.40633e-05
-0.000198379
-0.000182722
0.000156902
5.71564e-05
-0.00013105
-0.000115276
0.0259387
0.0257349
0.0252564
0.0259649
0.0253384
0.0253561
0.0258627
0.0256744
0.0253895
0.0248244
0.025081
0.0254327
0.0249791
0.025457
0.0254835
0.0256254
0.0255166
0.0258921
0.0256705
0.0253284
0.0253532
0.0254092
0.0254295
0.0253678
0.0255801
0.0252909
0.0257138
0.0255922
0.025399
0.0251473
0.0252618
0.0251271
0.0250545
0.0256182
0.0254055
0.0258564
0.0254612
0.0253453
0.0252735
0.0253794
0.0250638
0.0253852
0.0253075
0.0258227
0.0257973
0.0258274
0.0256634
0.0256065
0.0254945
0.0259136
0.0487276
0.0488878
0.048774
0.048752
0.0486587
0.0483753
0.0487376
0.0486956
0.0487284
0.0487541
0.0483773
0.0487145
0.04894
0.0249999
0.0249627
0.0251162
0.0250946
0.0251754
0.024803
0.0248282
0.0246935
0.0247732
0.024758
0.0246192
0.024749
0.0248519
0.0141265
0.014135
0.0141188
0.014211
0.0142097
0.0143142
0.0140816
0.0141209
0.0258901
0.0258165
0.0259935
0.0257672
0.0253414
0.0253798
0.0252068
0.0254658
0.0252764
0.0255597
0.025656
0.0258403
0.0257178
0.0257384
0.0260399
0.0180445
0.0179677
0.0178458
0.0180591
0.0144025
0.014044
0.0144546
0.0143561
0.0142056
0.0139476
0.0287919
0.0288779
0.0487279
0.0485357
0.0268407
0.0274544
0.0270941
0.0273697
0.027387
0.0273032
0.0271779
0.0272062
0.0274851
0.0276926
0.0275008
0.0274685
0.0274678
0.0272719
0.0269412
0.027019
0.0269865
0.0268391
0.0271162
0.0267779
0.0270557
0.0269583
0.0269224
0.0270748
0.0269805
0.0272054
0.0272795
0.0271585
0.0269024
0.0266659
0.0268096
0.0269885
0.0268967
0.0459673
0.0460349
0.0458806
0.0462395
0.00214117
0.00193188
0.00169499
-2.68882e-06
-5.58568e-05
-5.59011e-05
-4.29992e-05
4.32842e-05
-0.000194065
3.84893e-05
-0.000449793
0.0268072
0.0269118
0.0268814
0.0267978
0.0268018
0.0267084
0.02696
0.0267875
0.0270003
0.0270398
0.0266683
0.0269119
0.000719539
0.000481446
0.000656425
0.000767466
0.0478941
0.048405
0.0483356
0.0482797
0.0186337
0.0188207
0.018425
0.0182322
0.0177142
0.017726
0.0176228
0.0176909
0.0175238
0.0251244
0.025003
0.0250128
0.0249332
0.0245828
0.0251675
0.0248551
0.0248571
0.0218548
0.0218938
0.0219256
0.0220359
0.0218643
0.0217925
0.0220117
0.0217379
0.0238355
0.0240356
0.0237549
0.0267953
0.0267867
0.0265532
0.0262784
0.0264163
0.0264987
0.0264081
0.0200799
0.0199407
0.019934
0.0485486
0.0484383
0.0478459
0.0483485
0.0486343
0.0485077
0.0485031
0.0484759
-0.000489475
-0.000114089
-0.000365963
-0.000319837
-0.000205605
-0.00018394
-0.000410463
-7.39634e-05
-9.90758e-05
0.0282751
0.0282173
0.0282734
0.0143717
0.0142942
0.0145319
0.0260392
0.0263097
0.0259282
6.44229e-05
-2.50238e-05
-9.07025e-05
-7.00368e-05
-0.000117595
-6.11544e-05
-0.000139239
-0.000219645
-0.000152721
0.0155034
0.0157713
0.0152008
0.0155362
0.0246795
0.0246332
0.0247696
0.0246741
0.023204
0.0228045
0.0229737
0.0232856
0.0231178
0.0489449
0.048261
0.0478569
0.0488179
0.0489302
0.0488164
0.0488001
0.0489375
0.0490338
0.0281808
0.0282286
0.0282312
0.028049
0.0281695
0.0141722
0.0138772
0.0139552
0.0138981
0.0140487
0.0135316
0.0485492
0.0484023
0.0296189
0.0294584
0.0294601
0.0293694
0.0197701
0.0196329
0.0196276
0.0199401
0.0453174
0.0453925
0.0454166
0.0453403
0.0454018
0.017212
0.0173875
0.0174736
0.0176581
0.0485959
0.048434
0.0484945
0.0202903
0.0203844
0.0203269
-0.000401705
-0.000756946
-0.000225437
-0.000818303
-0.000112842
-9.57076e-05
-0.000189905
-0.000417428
0.0324318
0.0326547
0.0324932
0.0336209
0.0335617
0.0337166
0.0233672
0.0232374
0.023429
0.0233061
0.0261208
0.0260767
0.0263143
0.0492293
0.0493973
0.0489238
0.0490801
0.0487923
-0.000185122
-0.000169723
-0.000172579
-0.000246967
-0.000141912
-0.00013248
0.015348
0.015036
0.0152422
0.0150022
0.0152179
7.81118e-06
-0.000146031
-0.000154509
-0.000183583
-0.000186657
-0.000361632
-0.000369141
-0.000160663
2.12022e-05
-0.000183815
-0.000156441
-0.000176407
-0.000228607
-0.000324808
-0.000452679
0.0485227
0.0484727
0.0485266
0.0484864
0.0485036
0.0483997
0.0486033
0.0480398
0.0477938
0.0474495
0.0479016
0.0485434
0.048453
0.0484667
0.048621
0.0480071
0.048618
0.0485598
0.0484549
0.0485769
0.0485692
0.0485341
0.0486944
0.0486133
0.0487822
0.0486306
0.0479874
0.0478858
0.0479696
0.0486038
0.0476357
0.000170406
-7.68013e-05
-0.000192896
-0.000365335
-9.65774e-05
-0.000162616
-0.000186887
-0.000123811
-0.000172403
-0.000160209
2.98987e-05
3.63094e-05
-1.00664e-05
0.000226726
-0.000201054
-0.000166664
0.0166089
0.0165907
0.0333897
0.032973
0.0333775
0.0333049
0.0334926
0.0332793
0.0332637
0.0329719
0.0333526
0.0330252
0.0226854
0.0226366
0.0229294
0.022002
0.0216915
0.0220103
0.0219683
0.0148102
0.0147466
0.0145574
0.00261089
0.00214573
0.00218174
0.00183869
0.00201976
-7.61084e-05
-3.942e-05
0.048681
0.0486224
0.0485139
0.0294955
0.0293563
0.0293654
0.0293736
0.0291338
0.0140955
0.0139975
0.0138393
0.0348391
0.0348827
0.0346454
0.013859
0.0140072
0.0136718
0.0141511
0.014132
0.0140543
0.0351045
0.0351201
0.0349386
0.0350172
0.0350378
0.0350418
0.0171502
0.0171085
0.0171412
0.048705
0.0486536
0.0487324
0.0486595
0.0139699
0.0139465
0.0139148
0.0140318
0.0141363
0.0139447
0.0139257
0.0339865
0.0334004
0.0339951
0.0336386
0.0336595
0.0335419
0.0333449
0.0336849
0.033463
0.0334717
0.0333872
0.0348082
0.0350269
0.0137795
0.0140029
0.0137522
-5.64947e-05
-0.000137184
0.0219775
0.0220217
0.022309
0.0224362
0.0220866
0.0200274
0.0202691
0.0199926
0.0203617
0.0202064
0.0240328
0.0244564
0.0241099
0.013213
0.0134043
0.000757885
0.000711849
0.000260278
0.000635376
0.0350963
0.0350985
0.0350964
0.0133879
0.0136901
0.0134871
0.0197948
0.0196415
0.0197286
0.031621
0.0317005
0.0315171
0.0354689
0.0355906
0.0354488
0.0259168
0.025958
0.0257376
0.0487208
0.0486963
0.0485914
0.0173419
0.0172156
0.0173816
0.0171736
0.0286662
0.0282019
0.0277553
0.0283851
0.0281634
0.0280811
0.0282269
0.0260888
0.0258716
0.0254994
0.0260604
0.0255871
0.0254913
0.0254551
0.0255291
0.0255969
0.0261694
0.0260844
0.0262152
0.025907
0.02595
0.0260092
0.02561
0.0256915
0.0256366
0.0480147
0.0473437
0.0480149
0.0290222
0.0289435
0.0289981
0.0138398
0.0143715
0.014477
0.0140268
0.0139383
0.0133461
0.0140463
0.0135768
0.0141343
0.0135771
0.0138472
0.0139629
0.0138316
0.0139705
0.0137405
0.0486209
0.0486285
0.0485529
0.0487344
0.048828
0.048531
0.0216263
0.0217218
0.0218008
0.0217155
0.0216724
-0.000192196
-0.000148111
-0.000186836
-0.000337879
0.0159683
0.0161163
0.0158997
0.0325953
0.0327369
0.0325625
0.0327036
0.0212531
0.0209985
0.0211023
0.0212278
0.024879
0.0248135
0.0247308
0.0314024
0.031606
0.03144
0.0315185
0.0234788
0.0234404
0.0229625
0.0230558
-5.42748e-05
-1.36242e-05
0.0307086
0.0305521
0.0306102
0.0223356
0.0222848
0.0221551
0.00277817
0.00272363
0.00279177
0.0406309
0.040516
0.0408638
0.0485421
0.0486064
0.0487716
0.0487258
0.0183193
0.0184409
0.0180234
0.0176752
0.0176667
0.0179248
0.0178266
0.0177454
0.0319887
0.0321397
0.031783
0.0184029
0.0182865
0.018374
0.0184748
0.0184902
0.0420995
0.0421344
0.0419637
0.0486458
0.0486068
0.0486463
0.0222424
0.0220535
0.0221153
0.0220245
0.0220469
0.0404079
0.0404882
0.0408879
0.0065186
0.00653852
0.00643956
0.0346709
0.034797
0.0347846
0.00770382
0.00773495
0.00771231
0.0481277
0.0485579
0.0485937
0.0486668
0.0477442
0.0483245
0.0488564
0.00587978
0.00616546
0.00564257
0.0483604
0.048305
0.0484566
0.0485596
0.0484737
0.0485557
0.0421617
0.0420944
0.0420565
0.00654661
0.00643136
0.00636597
0.0348046
0.0346239
0.0122436
0.0119682
0.0122514
0.0123512
0.0333722
0.033507
0.0334936
0.0335961
0.0332897
0.0334675
0.0336172
0.0335031
0.036401
0.0356925
0.0362257
0.0189376
0.0190588
0.0188447
0.0189972
0.0306334
0.0303475
0.0486463
0.048501
0.0289028
0.0288181
0.0289951
0.0290324
0.0263316
0.0262929
0.0261063
0.025988
0.0257236
0.0263425
0.0263015
0.0259689
0.0260834
0.0259124
0.0268543
0.0269101
0.0268713
0.0268229
-0.000368633
-0.000517916
-0.000110226
-0.000125425
-7.33826e-05
-0.000232539
-0.000428278
0.0204938
0.0205686
0.0206093
0.020559
0.0204693
0.0242387
0.0242135
0.024505
0.0242196
0.0288518
0.0287264
0.02861
0.0287373
0.0286475
0.0327228
0.032643
0.00237786
0.00246109
0.00222498
0.0118726
0.012068
0.0122831
0.0459458
0.0458702
0.0462248
0.0325062
0.0327202
0.0323495
0.0328516
0.0327542
0.0326369
0.0232959
0.0234196
0.0232267
0.0232593
0.0230836
0.0215781
0.0216208
0.021811
0.0218833
0.0218968
0.021749
0.0160679
0.0164729
0.0163894
0.0349214
0.034912
0.0349689
0.034583
0.0344728
0.0347578
0.034736
0.0343872
0.0345971
0.0346067
0.0348198
0.0347659
0.0348643
0.0274726
0.0275564
0.0274224
0.027188
0.0142037
0.0148537
0.0145277
0.000203049
0.000410056
0.000251151
-0.000193653
0.000482601
0.000314972
-0.000296151
-0.000113041
0.000427677
0.0327723
0.0326888
0.0327201
0.0473031
0.0476232
0.047973
0.0474473
0.0475902
0.048334
0.0489439
0.0484898
0.0472302
-0.000427059
-0.000814037
-0.000608173
-0.000183861
-0.000290451
-0.000201617
-0.000134321
0.0331021
0.0325677
0.0323147
0.0329565
0.0328986
0.03228
0.0238874
0.0240427
0.0240102
0.0272693
0.0274107
0.0273099
0.0158782
0.0160407
0.0160492
0.0206455
0.0205934
0.0205436
0.020569
0.0207198
0.0206839
0.0134751
0.0136634
0.0134908
0.0472272
0.0471721
0.0474005
0.0316523
0.0318447
0.0313753
0.0315063
0.0150041
0.0151461
0.0150245
-0.000350491
-4.89707e-05
-0.000232207
0.0287065
0.0286435
0.0466051
0.0465064
0.0464299
0.0465326
0.0215652
0.0216405
0.0214783
0.0262629
0.0263633
0.0265469
0.0265828
0.0267842
0.0168219
0.0172438
0.017335
0.0169978
0.0166415
0.0189362
0.0191751
0.0190449
0.0282895
0.0283218
0.0282274
0.0282265
0.00123674
0.00100353
0.00126627
0.0197019
0.0195343
0.0196511
0.0223387
0.0223102
0.022244
0.0473959
0.0471507
0.0472931
0.006525
0.00646589
0.00647978
0.00645323
0.00638061
0.0204156
0.0198754
0.0204902
0.00131322
0.00096106
0.00132553
0.0418492
0.0418205
0.0418116
0.041813
0.0472052
0.0468627
0.0466928
0.0467905
0.0284439
0.0284459
0.0283945
0.028806
0.0072532
0.00730758
0.00714769
0.00726187
0.0295464
0.0296554
0.0294085
-0.000177982
4.863e-05
1.96282e-05
-5.38974e-05
0.00752123
0.00723636
0.00735082
0.0412222
0.0416918
0.0416702
0.0415733
0.0414652
0.0416197
0.0411607
0.0414756
0.0410051
0.0415064
0.0254805
0.0253365
0.0257176
0.0413003
0.041526
0.0414995
0.0412671
0.00709958
0.00725773
0.0071349
0.00727483
0.00690812
0.00718661
0.00661071
0.0164434
0.0164633
0.0167858
0.0174739
0.0171854
0.0172529
0.0415979
0.0416271
0.0411849
0.0414559
0.041483
0.0417279
0.0415463
0.0414978
0.0197021
0.0197449
0.0198972
0.00708104
0.00726472
0.00727765
0.00744525
0.00720813
0.00703729
0.00750996
0.00702942
0.00710874
0.00728399
0.022759
0.0224781
0.0226899
0.02551
0.0256761
0.0257879
0.0257093
0.00120944
0.0015411
0.00161371
0.0015981
0.0168141
0.0169567
0.0166121
0.0170268
0.0223473
0.0222768
0.02186
0.0218324
0.0217509
0.0221155
0.0217753
0.0265008
0.0266036
0.0264125
0.0264605
0.0263438
0.0205635
0.0204527
0.0205784
0.0202941
0.0297162
0.0297189
0.0297007
0.0206164
0.0207726
0.0206318
0.0206752
0.0207154
0.0460525
0.0462823
0.045992
0.0459799
0.0358341
0.0360694
0.0361235
0.0361021
0.0360308
0.0237972
0.0236962
0.0237215
0.0462726
0.0460346
0.0459412
0.0462242
-0.00017135
-0.000197561
-0.000136391
-9.18296e-05
-0.000195813
-0.000154156
-1.2307e-05
-0.000226308
0.000171543
0.0155691
0.0157396
0.0156212
0.00171205
0.00194365
0.00148134
0.020275
0.0200869
0.0201941
0.0156498
0.0159445
0.0156897
0.0156294
0.0158492
0.0366804
0.0367333
0.0364753
-0.000475026
-0.000505786
-0.000256715
0.00332889
0.00343582
0.00341063
0.00281904
0.0196884
0.0196751
0.0196768
0.0198432
0.0198228
0.0139482
0.013841
0.0139657
0.014268
0.0139233
0.0136713
0.0143526
0.0145044
0.0137369
0.0136664
0.0138288
0.0135869
0.0248702
0.0248149
0.0248893
0.0248069
0.0243129
0.0244662
0.0248199
0.0249091
0.0246327
0.0246316
0.0246016
0.0246151
0.0244028
0.024449
0.0239988
0.0246319
0.0247533
0.0246247
0.0245129
0.0473553
0.0477393
0.0473489
0.00306059
0.00286605
0.00279267
0.003133
0.00307498
0.0325668
0.0325963
0.0326398
0.0198884
0.0202844
0.0200223
0.0453583
0.0452923
0.0454037
0.0453182
0.0357935
0.0358356
0.0355452
0.0476665
0.0475174
0.0474839
0.0473802
0.000882073
0.000822254
0.000832909
0.0352409
0.0352777
0.035386
0.0125051
0.0123342
0.0120861
0.0123923
0.0120164
0.012903
0.012875
0.0129566
0.0484917
0.0485903
0.0126076
0.0126937
0.0351376
0.0352819
0.0349362
0.0460983
0.0459433
0.0458509
0.0460496
0.0457618
0.00116139
0.00029375
0.000961947
0.000692784
0.0243875
0.0243688
0.0243269
0.0242951
0.0246287
0.0244477
0.024367
0.0129931
0.0130654
0.0130365
0.0129503
0.0127388
0.0130801
0.0345299
0.0347718
0.0346963
0.0346243
0.0344449
0.0345507
0.0131616
0.0132282
0.0130853
0.0474846
0.0475735
0.047397
0.0472752
0.0470505
0.0471518
-0.000267551
0.000471658
-0.000194483
0.000246253
0.00024014
0.0299286
0.0300415
0.0299851
0.0302379
0.0302011
0.0354516
0.0356813
0.0357205
0.0354683
0.0356613
0.035431
0.0205041
0.0203994
0.0201556
0.0205894
0.0206817
0.0204953
0.0124677
0.0126458
0.0129349
0.0127117
0.0121179
0.035278
0.0353397
0.035205
0.0354729
0.0128774
0.0131286
0.0132305
0.0127041
0.0124901
0.0132968
0.0129243
0.013009
0.000629133
0.000390749
0.000602635
0.000542271
0.00047667
0.000350694
0.000690234
0.000411548
0.000767752
0.000493138
0.000796895
0.0478489
0.048766
0.0477649
0.048536
0.0477835
0.0319425
0.0322335
0.0322014
0.0476962
0.047618
0.0476125
0.0473568
0.0474113
0.0467696
0.0463399
0.0461664
0.0460055
0.0120171
0.0121792
0.0124466
0.036094
0.0363905
0.036236
0.0362999
0.011889
0.0121031
0.0121008
0.000191613
0.000256398
-0.000109493
0.000317019
1.99864e-05
0.0324436
0.0323782
0.0323784
0.0324275
0.0464177
0.0463699
0.0461159
0.0197535
0.0196742
0.0031334
0.00303169
0.00317499
0.0238874
0.0236672
0.0239934
0.0239815
0.023925
0.0240733
0.0241671
0.0452856
0.0452398
0.0456524
0.0453879
0.045417
0.0485788
0.0485833
0.048689
0.0148219
0.0149547
0.0148898
0.0129837
0.0127988
0.0128356
0.0221222
0.0221244
0.0222095
0.0222506
0.0221448
0.0220028
0.0220489
0.0219696
0.0356255
0.0352789
0.0352706
0.000926541
0.00135395
0.00081304
0.0464374
0.0461998
0.0461675
0.046408
0.035416
0.0352869
0.0303064
0.030244
0.0299702
0.0301515
0.0472835
0.0474361
0.0474847
0.0213155
0.0215605
0.0215492
0.0366014
0.0369458
0.0366927
0.0367818
0.0121384
0.0122382
0.0342261
0.0341177
0.0136228
0.0138388
0.0136964
0.0136406
0.0264595
0.0266844
0.0271664
0.0268614
0.0266852
0.026737
0.0263524
0.0267716
0.0265515
0.0268516
0.0266303
0.0267297
0.026643
0.0267282
0.0266855
0.0267752
0.0267387
0.0260336
0.0268247
0.000572824
0.000665955
0.000883441
0.0471716
0.0472319
0.047274
0.0181838
0.0181154
0.0176803
0.018062
0.019661
0.0197702
0.0196678
0.0199064
0.019764
0.024054
0.0240012
0.0240395
0.0468143
0.0466014
0.0466121
0.00113459
0.00121245
0.00117527
0.0475489
0.0473158
0.0478247
0.0475682
0.0335902
0.0334429
0.0335632
0.0465337
0.0466441
0.0468588
0.0194854
0.0194541
0.0195484
0.019753
0.0201157
0.0197455
0.0202307
0.02033
0.0204855
0.0320328
0.0319512
0.0319422
0.0213458
0.0213368
0.0212264
0.0213017
0.0243523
0.0244579
0.0245384
0.0242177
0.0247581
0.0248831
0.0246693
0.00241399
0.00251878
0.00247786
0.0361867
0.0362161
0.0360721
0.0290461
0.0295935
0.0295636
0.0294308
0.0292558
0.0294663
0.029441
0.0010125
0.00101296
0.00071745
0.00100706
0.0460832
0.0458158
0.0458634
0.0166739
0.0167339
0.0163349
0.00266071
0.00225768
0.00241356
0.00251122
0.00248946
0.00245354
0.00177966
0.00194901
0.0019306
0.00133925
0.00191378
0.00191887
0.0020253
0.0305544
0.0305045
0.0306498
0.0302847
0.046347
0.0463767
0.0231077
0.0230862
0.0230761
0.0229491
0.0280477
0.0279058
0.0271731
0.0275574
0.0281207
0.028237
0.0281761
0.0283177
0.0283281
0.0337195
0.033599
0.0335705
0.0333806
0.00296877
0.00324348
0.00180803
0.00185101
0.00197668
0.0278547
0.027948
0.0273293
0.0276275
0.027863
0.0165001
0.0159255
0.0158671
0.0160801
0.0157417
0.00193645
0.00178907
0.00170449
0.0327119
0.0324042
0.032821
0.0327311
0.0331969
0.0185858
0.0184319
0.0184784
0.0184627
0.0183446
0.0184957
0.0477005
0.0480434
0.0479755
0.0480835
0.0477669
0.0121053
0.0118864
0.01224
0.0124171
0.000703079
0.000701534
0.000529358
0.000582027
0.000560976
0.0363298
0.0363935
0.0363511
0.0365387
0.0250411
0.0248662
0.0249868
0.0287026
0.0290151
0.0287315
0.0486094
0.0482977
0.0483849
0.0484628
0.0484379
0.0474648
0.0472386
0.047547
0.0473712
0.0475238
0.0476277
0.048215
0.0484509
0.0484069
0.048507
0.0257184
0.0256327
0.0256976
0.0256206
0.0118388
0.0124655
0.0121685
0.0121942
0.0465034
0.0468075
0.0467594
0.0244661
0.0246991
0.0247262
0.0245305
0.0248466
0.0249715
0.0247026
0.000305752
0.00044194
0.000215582
0.000254465
-1.19349e-05
0.00010546
-0.000321323
-0.000210641
-0.000305318
-0.000175289
-0.000148506
-0.000207349
-0.000370365
-0.000222605
-0.000160479
0.0241261
0.0241575
0.0240633
0.0240475
0.0241644
0.0240384
0.0240955
0.024117
-0.000446066
-0.000223769
-0.000676086
-0.000197919
-0.000888554
-0.000695934
-0.000185577
-0.000302874
-0.000211461
-0.000199636
-3.7394e-05
0.0256341
0.0256307
0.0256536
0.0257447
0.0255099
0.0144664
0.0142583
0.0141363
0.0144331
0.0139038
0.0142921
0.0413049
0.0412413
0.041157
0.0407303
0.0468546
0.0466735
0.0467306
0.0233058
0.0231945
0.0231501
0.0231761
0.0286926
0.0286207
0.0289355
0.0287395
0.0281524
0.0284198
0.00316319
0.00318927
0.00329553
0.00330276
0.00330465
0.0031478
0.00296754
0.0414719
0.0414376
0.0415974
0.0243292
0.024156
0.0240584
0.0244835
0.0246748
0.0245839
0.0247303
0.0244972
0.0244312
0.0246149
0.024556
0.0242986
0.0246454
0.0243874
0.0245991
0.0366684
0.0367774
0.036426
0.0196899
0.0196317
0.0280287
0.0280763
0.0280072
0.0276976
0.0278192
0.0279215
0.0203923
0.0202206
0.0203081
0.020475
0.0202399
0.0204373
0.0201749
0.002086
0.00204287
0.00208673
0.0207876
0.0205503
0.0207558
0.0208229
0.0169197
0.0170218
0.0486863
0.0488633
0.0486402
0.0489103
0.048791
0.0488236
0.0488869
0.0489754
0.0486951
0.0481569
0.0479591
0.0414759
0.0412573
0.0412407
0.0292016
0.0294884
0.0293613
0.0297103
0.0140487
0.0136964
0.0135016
0.0137672
0.0155398
0.015492
0.015735
0.015663
0.0486449
0.0486506
0.0488787
0.0487664
0.0487369
0.0488303
0.0362961
0.0365486
0.0362404
0.0363398
-0.000626695
-0.000517405
-0.00020824
-8.23066e-05
-0.000254258
-0.00046739
-0.00104897
0.00719226
0.0070336
0.00697729
0.0198416
0.0197934
0.0202634
0.0201856
0.0227779
0.0226203
0.0224404
0.0120361
0.0121127
0.0122646
0.0123075
0.0411086
0.0414769
0.0413448
0.0119827
0.0121163
0.0119525
0.0117357
0.00695952
0.00685894
0.00681689
0.00700924
0.0126698
0.0126876
0.0129389
0.012795
0.0130097
0.000245002
0.000496342
0.000379231
7.33896e-05
-0.000302372
0.000328861
0.0347918
0.0351758
0.0349047
0.0346858
0.0344614
0.0349885
0.00154513
0.00157774
0.00167711
0.0152868
0.0160371
0.0159046
0.0164296
0.010826
0.0112324
0.0111352
0.0110762
0.0239386
0.0242506
0.0244075
0.0242273
0.0243301
0.0221055
0.0220929
0.022175
0.0219177
0.0220654
0.0218237
0.00719582
0.00661161
0.00699043
0.00719816
0.0131613
0.0131207
0.013379
0.0133818
0.0133077
0.0132886
0.00712249
0.00719167
0.00719474
0.0412273
0.0413079
0.0415015
0.0287256
0.0286434
-0.000122237
-0.000185655
-9.50387e-06
1.5275e-05
0.0246133
0.0248312
0.0249978
0.0111385
0.0112493
0.0111394
0.011278
0.0212803
0.0214514
0.0211037
0.0212339
0.02074
0.0200932
0.020489
0.0205179
0.0204651
0.0198466
0.0375721
0.0375617
0.0376958
0.0372754
0.0318088
0.0320525
0.0315622
0.0315081
0.0316226
0.0319764
0.0317039
0.0318776
0.0317392
0.0023014
0.00260203
0.00230029
0.00236259
0.0239503
0.0237046
0.0235471
0.023326
0.0239427
0.0136977
0.0135611
0.0134665
0.0136599
0.0136041
0.0132022
0.0135906
0.013465
0.0129182
0.0130905
0.0306757
0.0305216
0.0307617
0.0308431
0.030985
0.0305855
-0.000138168
-0.000679957
4.86212e-05
-0.000131875
8.18113e-05
-0.00013552
-0.000416001
0.00215731
0.00196425
0.00238373
0.046185
0.04577
0.0458713
0.0459216
0.0466816
0.0467854
0.0467665
0.0467031
0.0467519
0.0470123
0.0468462
0.0325498
0.0324302
0.0322365
0.0323462
0.0323894
0.0323394
0.0323884
0.0265843
0.026591
0.0268649
0.026736
0.0269274
0.0268956
0.0267102
0.0286939
0.0285334
0.0351948