/*--------------------------------*- C++ -*----------------------------------*\
  =========                 |
  \\      /  F ield         | OpenFOAM: The Open Source CFD Toolbox
   \\    /   O peration     | Website:  https://openfoam.org
    \\  /    A nd           | Version:  6
     \\/     M anipulation  |
\*---------------------------------------------------------------------------*/
FoamFile
{
    version     2.0;
    format      ascii;
    class       surfaceScalarField;
    location    "0.5";
    object      phi;
}
// * * * * * * * * * * * * * * * * * * * * * * * * * * * * * * * * * * * * * //

dimensions      [0 3 -1 0 0 0 0];

internalField   nonuniform List<scalar> 
245676
(
1.3447e-05
-1.5763e-05
2.316e-06
1.3447e-05
-1.33913e-05
-2.37169e-06
-1.33913e-05
8.64087e-06
-8.64087e-06
-8.34395e-06
-2.67264e-06
1.10166e-05
-8.34395e-06
9.43184e-06
-1.23128e-05
2.88094e-06
9.43184e-06
1.33261e-05
-1.33261e-05
1.01328e-06
-9.73153e-06
9.73153e-06
5.37462e-06
2.08811e-06
7.2813e-06
3.19894e-06
5.7969e-07
-2.04981e-07
6.9679e-06
7.86099e-06
5.16964e-06
1.00606e-05
-1.15623e-05
1.50172e-06
-1.23942e-05
1.001e-05
2.38415e-06
-1.00606e-05
-2.33355e-06
1.31308e-05
-1.31308e-05
1.23313e-05
7.99532e-07
2.59977e-06
-6.9878e-06
-5.72986e-06
1.27177e-05
7.08454e-06
6.01111e-06
7.02594e-06
1.45634e-05
-1.17782e-05
1.17782e-05
4.61939e-06
6.18955e-06
5.93918e-06
8.6411e-06
8.93566e-06
3.73418e-06
1.48748e-05
1.22602e-05
-1.22602e-05
1.18205e-05
4.39702e-07
4.23441e-08
7.37964e-06
6.55991e-06
5.37079e-06
7.827e-06
1.07192e-05
-1.07192e-05
1.11735e-05
-1.11735e-05
1.31438e-05
-1.9703e-06
8.83581e-07
7.11897e-06
2.50707e-06
7.34555e-06
-7.74978e-06
7.5232e-06
7.34555e-06
2.42702e-06
-1.24557e-05
1.09136e-05
1.54202e-06
-1.001e-05
-2.44562e-06
1.03191e-05
-1.03191e-05
-5.29499e-07
1.08486e-05
-1.79103e-05
1.03096e-05
7.60068e-06
1.64606e-05
-1.1263e-05
-5.19768e-06
-1.44963e-06
-1.1263e-05
1.03096e-05
-1.19163e-05
1.17414e-05
1.74907e-07
-1.09136e-05
-1.00265e-06
1.01571e-05
-1.01571e-05
1.23044e-05
-2.14731e-06
1.98537e-06
8.97693e-06
-8.97693e-06
1.21981e-05
-3.22114e-06
2.04094e-06
-5.04816e-06
-3.57521e-06
-6.40003e-06
-4.00333e-06
1.98023e-07
-6.59805e-06
-9.98495e-07
-5.82841e-06
-6.04665e-06
8.87505e-06
-8.87505e-06
1.18974e-05
-3.02231e-06
2.92043e-06
-9.86712e-06
-6.63974e-06
6.39455e-06
-1.62617e-05
-6.15146e-06
-8.07198e-06
-1.39982e-05
-9.44864e-06
9.44864e-06
1.04958e-05
-1.09529e-05
4.57121e-07
1.04714e-06
8.89311e-06
-8.89311e-06
9.88706e-06
-9.93947e-07
1.01201e-06
-6.12364e-06
-4.32395e-06
-4.93031e-06
-1.09837e-05
1.01396e-05
-1.50699e-05
-4.27768e-06
9.99073e-06
-9.99073e-06
1.09402e-05
-9.49505e-07
2.04712e-06
-9.39475e-06
-5.82294e-06
-6.77438e-06
-7.02478e-06
1.25372e-05
-1.25372e-05
1.18541e-05
6.83104e-07
1.86339e-06
-8.72678e-06
-2.88117e-06
7.35027e-06
-7.35027e-06
6.84836e-06
-8.22486e-06
-2.52555e-06
-1.10889e-05
9.88725e-06
1.2016e-06
-1.17414e-05
6.52515e-07
6.46007e-06
-6.46007e-06
7.77713e-06
-1.31706e-06
-4.76009e-06
-1.39211e-05
9.94746e-06
3.97367e-06
-1.43298e-05
4.08638e-07
-1.43298e-05
9.94746e-06
1.09229e-05
-7.4985e-06
1.1978e-05
1.76045e-05
-6.68156e-06
5.88799e-06
-8.59133e-06
8.59133e-06
9.47242e-06
-9.47242e-06
-6.8212e-06
1.27092e-05
4.06113e-06
7.89773e-06
1.0735e-05
-1.6723e-05
1.6723e-05
1.3536e-05
-1.3536e-05
-1.51539e-05
1.51539e-05
1.4561e-05
-1.4561e-05
1.15528e-05
-1.39907e-05
2.43788e-06
1.15528e-05
-1.55309e-05
1.54017e-06
-1.55309e-05
1.27399e-05
-1.0749e-05
-1.99094e-06
1.13462e-05
1.39366e-06
1.13462e-05
1.22688e-05
-9.22578e-07
-1.00607e-05
1.23538e-05
-2.29302e-06
9.36925e-06
-9.36925e-06
-1.00607e-05
-1.0749e-05
1.33512e-05
-1.21346e-05
-1.2166e-06
2.60226e-06
9.01567e-06
-1.18171e-05
2.80147e-06
9.01567e-06
1.19517e-05
-1.19517e-05
1.34548e-07
1.03165e-05
-1.11682e-05
8.51765e-07
1.03165e-05
1.05331e-05
-1.05331e-05
-6.35158e-07
1.06823e-05
-1.03205e-05
-3.61784e-07
1.06823e-05
9.70669e-06
-9.70669e-06
-6.1381e-07
1.31642e-05
-1.35814e-05
4.1721e-07
1.31642e-05
-1.15726e-05
1.15726e-05
6.96191e-07
-6.78732e-06
5.42191e-06
1.36542e-06
-9.43136e-06
2.64404e-06
-7.76164e-06
1.31835e-05
-1.2378e-05
4.61632e-06
-9.56608e-06
-2.81188e-06
-9.43136e-06
-9.56608e-06
-1.58386e-05
1.58386e-05
-1.21346e-05
8.72828e-06
4.45527e-06
-1.61804e-05
1.61804e-05
1.62025e-05
-1.62025e-05
1.57813e-05
-1.57813e-05
-1.13646e-05
1.45206e-05
-3.15596e-06
-1.13646e-05
-1.53011e-05
1.53011e-05
1.33157e-05
-1.33157e-05
1.57531e-05
-1.11714e-05
-4.58164e-06
1.4233e-06
1.51365e-05
-1.51365e-05
-8.70371e-06
-2.80205e-06
-8.0797e-06
7.25851e-06
-7.88252e-06
-8.0797e-06
-2.57016e-06
1.5214e-05
-1.5214e-05
-9.34243e-06
-5.97428e-06
-6.95868e-06
-6.80055e-06
-1.52573e-05
1.52573e-05
1.37471e-05
-1.37471e-05
-4.90852e-06
-5.1179e-06
-8.37504e-06
-5.5845e-06
6.60781e-06
-1.49829e-05
-8.34815e-06
-1.54812e-05
1.54812e-05
1.0094e-05
4.42656e-06
-1.0094e-05
1.19083e-05
-1.81432e-06
-7.93491e-06
-6.47223e-06
-8.48929e-06
-6.4581e-06
7.42124e-06
2.20222e-06
7.94047e-06
-8.295e-06
7.77577e-06
7.94047e-06
1.87258e-06
-1.30655e-05
9.8385e-06
3.22703e-06
-9.88725e-06
-3.17827e-06
5.65317e-06
7.46061e-06
7.13783e-06
6.73987e-06
1.23621e-05
-1.23499e-05
-1.22971e-08
1.32311e-05
-8.6893e-07
1.32311e-05
5.48434e-06
7.11086e-06
4.95962e-06
-4.3096e-06
9.2352e-06
1.0444e-05
6.48001e-06
1.32307e-05
-1.32307e-05
-1.87734e-05
1.48708e-05
3.90265e-06
-5.54272e-06
1.11437e-05
7.64623e-07
-1.11437e-05
1.23125e-05
-1.1688e-06
7.19838e-06
6.98326e-06
6.17858e-06
8.56639e-06
-1.64086e-05
1.35106e-05
2.89804e-06
-1.48708e-05
-1.53784e-06
1.35106e-05
5.23275e-06
4.44086e-06
7.65018e-06
-2.41743e-06
1.52141e-05
-1.52141e-05
-1.23498e-05
1.55675e-05
-1.28198e-05
-2.74767e-06
3.21762e-06
4.35545e-06
5.19492e-06
-3.66408e-06
8.01953e-06
5.88631e-06
1.55317e-05
-1.55317e-05
1.36651e-05
-1.35256e-06
1.36651e-05
5.54672e-06
4.24886e-06
-5.6036e-06
1.11503e-05
4.07011e-06
1.61721e-05
-1.61721e-05
1.43767e-06
1.56738e-05
-1.56738e-05
1.62055e-05
-1.62055e-05
-1.29445e-05
1.29445e-05
-1.60701e-05
1.60701e-05
-1.63432e-05
1.63432e-05
-1.28198e-05
1.97786e-05
-6.24264e-06
-1.26609e-05
1.26609e-05
6.38732e-06
1.31644e-05
-1.31644e-05
1.32518e-05
-1.32518e-05
1.69999e-05
-1.69999e-05
-1.29584e-05
1.29584e-05
1.37621e-05
-1.37621e-05
-1.29605e-05
1.29605e-05
1.39062e-05
-1.39062e-05
-1.35475e-05
1.2898e-05
6.49502e-07
-1.35475e-05
9.8385e-06
1.39218e-05
-1.39218e-05
-1.16144e-05
1.16144e-05
5.67208e-06
6.42836e-06
3.56989e-06
-4.57209e-06
1.29637e-05
9.24198e-06
3.98079e-06
-4.52925e-06
1.20845e-05
1.04091e-05
1.02823e-05
2.61562e-06
1.02823e-05
7.57382e-06
4.28096e-06
-4.11303e-06
1.18289e-05
1.18548e-05
8.2138e-06
1.50084e-05
-1.49724e-05
-3.59497e-08
1.50084e-05
1.39246e-05
-1.18135e-05
-2.11117e-06
1.16562e-05
2.26843e-06
1.16562e-05
8.70651e-06
-1.39869e-05
-9.85578e-07
1.39869e-05
-1.72023e-05
3.21541e-06
4.10845e-06
8.75766e-06
-1.21843e-05
-5.01796e-06
-1.21843e-05
1.33486e-05
-1.33486e-05
7.43886e-06
5.52592e-06
-1.43255e-05
1.43255e-05
7.838e-06
4.88438e-06
-1.35821e-05
1.02149e-05
3.36717e-06
-1.13346e-05
-2.24749e-06
-1.13346e-05
1.53313e-05
-1.16331e-05
-3.69827e-06
1.18135e-05
3.5179e-06
4.70499e-06
-4.33737e-06
1.25056e-05
-7.77324e-06
1.24782e-05
5.09739e-06
1.49628e-05
-1.49628e-05
7.76485e-06
4.82049e-06
1.19791e-05
-1.46146e-05
2.63548e-06
1.19791e-05
8.38726e-06
-1.28046e-05
-1.80994e-06
1.28046e-05
-1.37951e-05
9.90493e-07
-1.32843e-05
1.32843e-05
5.29189e-06
7.33178e-06
-1.16331e-05
7.47519e-06
5.24825e-06
1.57518e-05
-1.57518e-05
5.49132e-06
7.73175e-06
1.55546e-05
-1.55546e-05
8.15733e-06
5.12093e-06
4.49998e-06
-3.785e-06
1.26287e-05
1.26573e-05
1.4988e-05
-1.4988e-05
1.16833e-05
-1.3647e-05
1.96361e-06
1.16833e-05
7.48161e-06
5.61907e-06
-1.27547e-05
1.41831e-05
-1.42842e-06
-1.27547e-05
9.34285e-06
-1.21681e-05
1.06828e-05
1.48537e-06
-1.02149e-05
-1.95324e-06
6.88066e-06
4.74212e-06
1.17298e-05
-1.03553e-05
-1.37453e-06
1.09529e-05
7.76925e-07
-1.09615e-05
9.72432e-06
1.23718e-06
-1.06828e-05
-2.78729e-07
7.27427e-06
4.35394e-06
3.41948e-06
1.11362e-05
-3.39949e-06
5.17554e-06
5.91277e-06
4.14477e-06
-4.75013e-06
3.91728e-06
1.32877e-05
6.23684e-06
1.14124e-05
-1.06558e-05
-3.13934e-06
1.06558e-05
-1.35252e-05
2.86944e-06
-1.29258e-05
-7.21188e-07
1.29258e-05
-1.49781e-05
2.05238e-06
1.09432e-05
9.86362e-06
4.31946e-06
9.86362e-06
6.30293e-06
1.5677e-05
-5.85143e-06
3.93627e-06
1.47532e-05
6.18511e-06
9.6046e-06
-5.6507e-06
5.32773e-06
1.41368e-05
7.51266e-06
1.14489e-05
5.60103e-06
6.42129e-06
1.25261e-05
-1.45848e-05
1.45848e-05
4.23937e-06
1.12294e-05
-6.90371e-06
1.11431e-05
7.23137e-06
1.39944e-05
-7.06552e-06
1.42969e-05
-7.63415e-06
7.66301e-06
1.44355e-05
5.39931e-06
8.2729e-06
-6.84006e-06
1.45031e-05
-6.9141e-06
3.85558e-06
1.3634e-05
8.46908e-06
5.91147e-06
1.4772e-05
1.03356e-05
-1.51467e-05
9.24366e-06
5.903e-06
-9.72432e-06
-5.42233e-06
-9.03752e-06
-5.94063e-06
9.03752e-06
-1.17152e-05
2.67767e-06
6.4401e-06
1.22731e-05
-1.1265e-05
1.29166e-05
-1.65159e-06
-1.1265e-05
-1.55517e-05
2.02649e-06
-1.55517e-05
-5.67178e-06
1.21119e-05
6.22693e-06
5.08586e-06
1.41216e-05
-1.41216e-05
4.86532e-06
7.06944e-06
7.6558e-06
1.30504e-05
1.03553e-05
-8.08461e-06
-2.27069e-06
8.56108e-06
1.24527e-05
-6.15936e-06
1.47204e-05
-9.24366e-06
8.28528e-06
9.58377e-07
4.85589e-06
7.7541e-06
-2.93809e-07
-1.14214e-05
6.32525e-06
1.10247e-05
-7.71413e-06
1.40394e-05
6.08067e-06
7.75456e-06
1.37365e-05
1.61944e-05
-9.76076e-06
-6.43365e-06
1.61944e-05
1.2379e-05
-1.2379e-05
1.00938e-05
2.28522e-06
1.74986e-06
6.85351e-06
5.73517e-06
-1.2375e-05
1.36378e-05
-1.26284e-06
-1.2375e-05
9.72637e-06
-9.72637e-06
-1.9285e-06
1.16549e-05
3.19027e-06
2.37484e-06
-3.91513e-07
-3.06053e-07
1.06403e-05
-8.95298e-06
-1.68736e-06
1.06403e-05
-2.02865e-06
5.56264e-07
1.13799e-05
-1.54515e-05
4.07154e-06
1.13799e-05
-1.22572e-05
1.13994e-05
8.57743e-07
-8.77245e-07
1.13994e-05
-1.24328e-05
1.11697e-05
1.26306e-06
-1.03335e-06
-1.20194e-05
-3.43207e-06
-1.20194e-05
-1.60743e-06
1.11697e-05
1.31536e-05
-1.31536e-05
1.18507e-05
-1.18507e-05
-1.45233e-05
1.14569e-05
3.06638e-06
-2.67263e-06
1.21434e-05
-1.34472e-05
1.30382e-06
1.21434e-05
-1.3414e-05
1.13761e-05
2.03787e-06
-1.2706e-06
1.13761e-05
-1.24288e-05
1.16817e-05
7.47137e-07
-1.05271e-06
1.36041e-05
-1.36041e-05
1.14569e-05
-1.4637e-05
1.33026e-05
1.33449e-06
-3.18011e-06
1.26009e-05
-1.26009e-05
-8.46278e-07
1.16817e-05
1.39701e-05
-1.39701e-05
-1.35612e-05
1.13553e-05
2.2059e-06
-1.33026e-05
-2.58626e-07
1.36247e-05
-1.36247e-05
-1.39628e-05
1.39628e-05
1.27526e-05
-1.17406e-05
1.3796e-05
-1.3796e-05
1.13553e-05
1.33808e-05
-1.33808e-05
-1.35047e-05
1.35047e-05
1.35567e-05
-1.35567e-05
-1.29405e-05
1.29405e-05
-1.39751e-05
1.39751e-05
1.35249e-05
-1.35249e-05
1.18337e-05
-1.36559e-05
1.82221e-06
1.18337e-05
-1.30024e-05
1.30024e-05
-1.35338e-05
1.35338e-05
1.38725e-05
-1.38725e-05
1.02448e-05
-1.3913e-05
3.66816e-06
1.02448e-05
-3.41107e-06
1.36984e-05
-1.36984e-05
-1.65656e-05
1.66079e-05
-1.3146e-05
1.3146e-05
9.84054e-06
-1.35497e-05
3.70921e-06
9.84054e-06
-4.07246e-06
-1.53388e-05
1.24344e-05
2.90437e-06
-1.20011e-05
-3.33767e-06
-1.20011e-05
-1.27489e-05
1.53487e-05
2.58479e-06
-1.45342e-05
1.40869e-05
-1.40869e-05
4.3121e-06
9.81768e-06
-1.31165e-05
2.24622e-05
-1.81501e-05
1.26986e-05
-1.34562e-05
1.34562e-05
1.004e-05
-1.52446e-05
5.20461e-06
1.004e-05
-3.50972e-06
1.24344e-05
-1.45581e-05
1.16518e-05
2.90638e-06
-2.12373e-06
1.41372e-05
-1.41372e-05
-1.37862e-05
1.37862e-05
-2.99403e-07
1.03869e-05
-1.00875e-05
-9.27716e-06
-5.96748e-06
9.27716e-06
-1.32659e-05
3.98872e-06
1.16518e-05
-1.29335e-05
1.29335e-05
1.44948e-05
-1.44948e-05
2.11703e-06
-1.92102e-05
1.70932e-05
1.58205e-05
-1.22439e-05
-1.45967e-06
1.11748e-05
4.64578e-06
2.74655e-06
-1.49904e-05
-1.11891e-05
-2.07676e-06
1.11891e-05
-1.16339e-05
4.44808e-07
-1.44946e-05
1.44946e-05
7.72746e-07
1.0402e-05
-1.65934e-05
1.21028e-05
4.49057e-06
-1.29212e-05
-3.67225e-06
-1.29212e-05
1.12379e-05
-1.43958e-05
3.15792e-06
1.12379e-05
-1.10425e-05
1.29059e-05
-1.15048e-05
-1.29133e-07
-1.15048e-05
-1.32766e-05
1.32766e-05
1.72361e-06
1.62346e-05
-1.79582e-05
-1.33771e-05
1.11848e-05
2.19233e-06
-1.21028e-05
-1.27426e-06
-1.10289e-05
-3.36688e-06
1.10289e-05
-1.43364e-05
3.3075e-06
1.20726e-05
-1.28366e-05
7.64053e-07
1.20726e-05
-1.34192e-05
1.21764e-05
1.24281e-06
-1.31111e-05
-3.08094e-07
-1.31111e-05
-1.41856e-05
-1.50788e-07
1.41856e-05
-1.58166e-05
1.63094e-06
-1.11848e-05
1.42995e-05
-3.11472e-06
1.21764e-05
-8.96113e-06
-6.85545e-06
8.96113e-06
-1.2653e-05
3.69189e-06
-1.19681e-05
-8.68529e-07
1.19681e-05
-1.24077e-05
4.39555e-07
-1.33599e-05
1.33599e-05
-1.05085e-05
6.63118e-07
9.84536e-06
1.44648e-06
-1.07079e-06
-1.08842e-05
1.24373e-05
-1.24373e-05
-1.54783e-05
1.27832e-05
2.69514e-06
-3.04098e-06
1.19083e-05
2.39113e-06
-1.19084e-05
1.28451e-05
-9.36764e-07
-1.18241e-05
-8.28938e-07
1.18241e-05
-1.39901e-05
2.16604e-06
8.72347e-06
6.24328e-06
-1.49668e-05
-7.93985e-06
7.34321e-06
8.81285e-06
-1.61561e-05
-7.34395e-06
8.4267e-06
-1.4708e-05
8.02876e-06
6.13094e-06
-1.41597e-05
-6.85188e-06
-6.25024e-06
-1.04233e-05
-1.98433e-06
1.04233e-05
-1.10581e-05
6.34727e-07
-1.27832e-05
1.30867e-05
-3.0355e-07
9.05231e-06
3.79281e-06
-9.05231e-06
1.58127e-05
-6.76041e-06
-1.27008e-05
-1.28934e-06
1.27008e-05
-1.30525e-05
3.51745e-07
-5.99455e-06
-7.71862e-06
-1.89869e-05
8.22499e-06
6.25578e-06
-1.44808e-05
-8.87375e-06
-4.9996e-06
-7.85019e-06
-7.64356e-06
-7.81676e-06
-6.31504e-06
-5.4346e-06
-8.33494e-06
-6.87779e-06
9.76179e-06
-1.80967e-05
-9.43965e-06
3.1246e-06
9.39532e-06
5.55112e-06
-1.49464e-05
-1.31428e-05
9.20454e-06
3.88219e-06
-9.20454e-06
1.48921e-05
-5.68759e-06
-1.40761e-05
1.15985e-05
2.47762e-06
-4.64425e-06
8.94958e-06
-1.68845e-05
1.15985e-05
-1.33279e-05
1.03675e-05
2.96036e-06
-1.72943e-06
-1.11126e-05
1.11126e-05
-1.36983e-05
2.58571e-06
-1.93989e-06
-1.20166e-05
1.03675e-05
-1.17629e-05
3.12739e-06
8.63548e-06
-1.39532e-06
-7.58833e-06
1.07157e-05
-7.36182e-08
-8.91004e-06
8.63548e-06
-1.0082e-05
1.07451e-05
-1.11903e-05
1.32219e-07
1.11903e-05
-1.44422e-05
3.25192e-06
-6.28651e-06
9.58149e-06
-8.70639e-06
-8.75103e-07
7.90349e-06
1.678e-06
-7.90349e-06
9.80074e-06
-1.89724e-06
8.12955e-06
1.67119e-06
-8.12955e-06
1.08761e-05
6.25752e-06
9.55519e-06
-5.73464e-06
-9.53391e-06
-9.41643e-06
1.01892e-05
-9.41643e-06
7.13451e-06
6.32545e-06
-1.346e-05
-1.03419e-05
-5.6747e-06
-8.84081e-06
1.10131e-05
-2.17227e-06
-8.84081e-06
1.34836e-06
6.86107e-06
-1.11454e-05
5.70494e-06
4.96797e-06
-1.06729e-05
1.06167e-05
-1.62914e-05
-1.20541e-05
9.58757e-06
1.42551e-06
-9.58757e-06
1.13112e-05
6.81401e-06
7.83398e-06
-1.4648e-05
-1.26218e-05
1.26218e-05
-9.37913e-06
-3.24265e-06
9.30456e-07
-1.07451e-05
1.0214e-05
5.31111e-07
1.50597e-05
-2.43791e-06
-1.3126e-05
1.3126e-05
1.93373e-06
9.28307e-06
2.02812e-06
-9.28306e-06
1.06023e-05
-1.31923e-06
-5.7238e-07
-9.8679e-06
9.71141e-06
1.56486e-07
-9.8679e-06
7.34399e-07
8.99279e-06
7.18617e-07
-8.99279e-06
1.14949e-05
-2.50213e-06
1.18799e-05
-8.61929e-06
-3.26059e-06
1.18799e-05
-2.56233e-06
9.96808e-06
4.92404e-06
9.96808e-06
-1.00357e-05
1.12001e-05
-1.16433e-06
-1.00357e-05
1.4592e-06
-1.11628e-05
1.29889e-05
-1.82614e-06
-1.11628e-05
1.00402e-05
1.1599e-06
-1.00402e-05
1.21829e-05
-2.14271e-06
2.61678e-06
4.66686e-06
-8.32378e-06
-3.78211e-06
9.77639e-06
-7.08395e-06
-2.69244e-06
8.70639e-06
1.07e-06
6.01857e-06
-9.51386e-06
-8.16683e-06
9.92531e-06
2.88655e-07
9.92531e-06
1.26827e-05
-2.75741e-06
-1.04528e-05
9.13572e-06
4.9092e-06
8.92931e-06
-8.56883e-06
-3.60476e-07
7.08395e-06
1.84536e-06
8.53136e-07
-9.90719e-06
1.14414e-05
-1.53419e-06
-9.90719e-06
1.11714e-05
1.5113e-06
1.10699e-05
-1.13693e-05
8.56883e-06
2.50106e-06
-6.43814e-06
-1.13693e-05
1.17356e-05
-3.35987e-06
-8.37576e-06
3.66343e-07
-4.29563e-06
1.01819e-05
1.21829e-05
1.24444e-05
-9.74067e-06
-2.70374e-06
1.0644e-05
1.8004e-06
1.0644e-05
1.29358e-05
-2.2918e-06
-5.10708e-06
-1.13145e-05
5.96874e-06
-8.58212e-07
-9.74067e-06
1.4884e-05
-1.20602e-05
-2.82386e-06
5.14334e-06
4.09111e-06
1.07681e-05
2.1677e-06
1.07681e-05
-1.20602e-05
-1.37199e-05
1.37199e-05
1.28008e-05
-1.28008e-05
-1.24691e-05
1.24691e-05
7.83223e-06
-1.03801e-05
2.54783e-06
7.83223e-06
1.2405e-05
-1.2405e-05
-1.32438e-05
1.32438e-05
1.30904e-05
-1.30904e-05
-1.32084e-05
1.32084e-05
1.06477e-05
-1.06477e-05
-9.14608e-07
-1.19681e-05
1.19681e-05
1.31926e-05
-1.17979e-05
-1.39468e-06
1.22447e-06
-1.10269e-05
3.79209e-07
1.17245e-05
-1.17245e-05
6.97568e-07
9.87976e-06
-9.87976e-06
1.21095e-05
-2.22972e-06
3.84964e-07
1.0622e-05
-1.0622e-05
1.28808e-05
-2.25881e-06
3.00107e-06
-1.33885e-05
1.64434e-05
-3.05497e-06
-1.33885e-05
-9.41196e-06
9.41196e-06
-1.27585e-05
3.34652e-06
1.0408e-05
-1.0408e-05
-2.35043e-06
-1.17979e-05
1.30566e-05
-1.1917e-05
-1.13955e-06
1.25871e-06
9.9351e-06
6.50833e-06
-9.9351e-06
1.43534e-05
-4.41825e-06
1.02302e-05
-1.06158e-05
3.85533e-07
1.02302e-05
-1.49836e-07
9.64538e-06
-9.64538e-06
-9.70375e-07
-9.33995e-06
-9.35806e-07
1.02758e-05
9.33995e-06
-1.07063e-05
1.36631e-06
1.20931e-05
-1.10559e-05
-1.03717e-06
1.1917e-05
1.76034e-07
9.72898e-06
4.62437e-06
-9.72898e-06
1.50587e-05
-5.3297e-06
8.86172e-06
-1.06532e-05
1.79149e-06
8.86172e-06
-1.84455e-06
1.15e-05
-1.15e-05
8.4683e-07
1.10559e-05
-1.42746e-05
3.21868e-06
9.58741e-06
-1.06416e-05
1.0542e-06
9.58741e-06
9.54325e-06
5.51542e-06
-9.54325e-06
1.44109e-05
-4.86768e-06
8.40217e-06
-1.07124e-05
2.31026e-06
8.40217e-06
-2.23944e-06
9.74908e-06
-9.96883e-06
2.19759e-07
9.74908e-06
-9.63346e-07
-9.30059e-06
-6.68246e-07
9.30059e-06
-1.03306e-05
1.03003e-06
-1.20013e-05
-2.27325e-06
-1.20013e-05
3.51664e-07
-9.11636e-06
1.45472e-05
-5.43084e-06
-9.11636e-06
5.29457e-06
-1.0989e-05
1.28227e-06
-8.72865e-06
-2.26031e-06
8.72865e-06
-1.10307e-05
2.30203e-06
1.16024e-05
-1.16024e-05
1.08262e-05
-1.71729e-07
-1.06544e-05
1.08262e-05
-2.04513e-07
-8.81276e-06
1.36468e-05
-4.83404e-06
-8.81276e-06
5.73444e-06
9.32131e-06
-1.12665e-05
1.94522e-06
9.32131e-06
-1.02438e-05
-1.02277e-06
1.02438e-05
-1.06525e-05
4.0875e-07
-9.67837e-06
-9.74151e-07
9.67837e-06
-1.13387e-05
1.66036e-06
1.28133e-05
-1.21113e-05
-7.01975e-07
1.28133e-05
8.54312e-06
-1.05463e-05
2.00316e-06
8.54312e-06
-2.79561e-06
-1.25389e-05
1.25389e-05
1.1079e-06
1.0642e-05
-1.07845e-05
1.42509e-07
1.0642e-05
9.56796e-08
-9.83749e-06
-9.46983e-07
9.83749e-06
-1.1344e-05
1.50653e-06
8.74204e-06
-1.13411e-05
2.59904e-06
8.74204e-06
-2.60198e-06
-1.10897e-05
-1.02169e-06
1.28559e-05
-1.14087e-05
-1.44727e-06
1.10897e-05
1.76629e-06
-1.03463e-05
-9.94739e-07
1.03463e-05
-6.17053e-07
-9.7293e-06
1.14375e-05
-1.14375e-05
-1.14468e-05
9.13725e-07
-9.70401e-06
-1.74279e-06
9.70401e-06
-1.07554e-05
1.05137e-06
1.26403e-05
-1.19209e-05
-7.1943e-07
1.14087e-05
1.23164e-06
-8.73446e-06
-2.02092e-06
8.73446e-06
-1.06228e-05
1.8883e-06
-1.32584e-05
1.55608e-05
-2.30243e-06
-1.32584e-05
1.04131e-05
-1.1167e-05
7.53922e-07
1.04131e-05
-2.09713e-07
-1.04451e-05
-7.21904e-07
1.04451e-05
-9.99367e-06
-4.51401e-07
1.04097e-05
-1.13354e-05
9.25658e-07
1.04097e-05
4.16046e-07
-1.19407e-05
6.05282e-07
-1.19407e-05
1.34744e-05
-1.09703e-05
-2.5041e-06
1.19209e-05
1.55348e-06
9.02472e-06
-1.15809e-05
2.5562e-06
9.02472e-06
-1.30823e-05
1.5014e-06
-1.30823e-05
1.10005e-05
-1.10879e-05
8.73869e-08
1.10005e-05
-1.03641e-05
-7.23877e-07
1.03641e-05
-1.09039e-05
5.39875e-07
1.21949e-05
3.36591e-06
-1.21949e-05
1.31125e-05
-9.17522e-07
-1.88826e-06
1.11423e-05
-1.08664e-05
-2.75887e-07
1.11423e-05
9.74222e-06
-1.21471e-05
2.40489e-06
9.74222e-06
-1.1242e-06
1.35195e-05
-1.07651e-05
-2.75435e-06
1.09703e-05
2.5492e-06
-1.14824e-05
-6.64743e-07
-1.14824e-05
-1.1623e-05
1.1623e-05
-1.14787e-05
1.14787e-05
-1.09836e-05
1.09836e-05
8.96814e-06
4.14431e-06
-8.96814e-06
1.36579e-05
-4.68976e-06
1.31161e-05
-1.27406e-05
-3.75497e-07
1.07651e-05
2.35099e-06
-1.29127e-05
2.85197e-06
-1.19815e-05
-9.31236e-07
-1.19815e-05
1.11982e-05
2.45973e-06
1.11982e-05
-1.27406e-05
-1.51782e-05
1.51782e-05
1.04029e-05
-2.46247e-06
-4.77523e-06
6.87816e-06
5.75719e-06
-1.26353e-05
5.76393e-06
-1.12962e-05
7.46499e-06
4.91609e-06
-1.23811e-05
-9.82868e-06
-5.54763e-06
-5.00709e-06
-7.89787e-06
-1.12162e-05
-5.85651e-06
-6.33407e-06
-6.9309e-06
-4.26394e-06
-8.5853e-06
-5.08666e-06
-8.32433e-06
-7.39169e-06
-5.10982e-06
-8.83473e-06
-4.70985e-06
-9.37916e-06
-5.01942e-06
-9.04868e-06
-4.66077e-06
-4.41619e-06
-8.76314e-06
-7.5212e-06
-4.92944e-06
-6.22881e-06
5.93462e-06
-1.21042e-05
-1.375e-05
-5.73632e-06
6.36793e-06
-1.28687e-05
7.54144e-06
-1.32778e-05
-5.01854e-06
-9.51022e-06
-9.747e-06
-8.6375e-06
-4.1202e-06
-8.17945e-06
-4.0127e-06
5.14414e-06
-7.9232e-06
2.77906e-06
7.11564e-06
-1.9715e-06
-1.34078e-05
4.76682e-06
8.64103e-06
-3.76285e-06
-4.16035e-06
-3.21888e-07
-1.3086e-05
-1.48655e-05
1.45436e-05
5.83077e-06
-8.91724e-06
3.08647e-06
7.51187e-06
-1.6811e-06
2.22124e-06
1.52778e-06
9.54774e-07
-1.86862e-05
1.77314e-05
1.51164e-05
-1.41617e-05
2.10938e-06
-1.85847e-06
-2.00441e-05
1.35789e-06
1.14921e-05
-1.30703e-05
1.57824e-06
5.15503e-07
-9.25358e-07
-1.2145e-05
-1.5087e-05
-6.62995e-06
-2.28729e-06
-9.63515e-06
7.95405e-06
-4.48773e-06
7.27658e-06
-5.67615e-07
-5.62507e-06
8.95321e-06
-3.32814e-06
-7.02633e-06
1.87712e-06
7.0761e-06
4.99335e-06
-1.9676e-06
-1.17449e-05
1.37125e-05
1.40603e-05
-1.60279e-05
-2.08295e-06
-9.95761e-06
1.40259e-05
-1.38279e-05
1.02938e-05
-1.03459e-05
-5.10948e-06
8.189e-06
-3.07951e-06
3.78083e-07
1.62807e-06
1.94846e-05
2.78087e-06
-2.22655e-05
3.9231e-06
4.2659e-06
1.51659e-05
3.33902e-07
-1.54998e-05
5.04163e-06
1.87966e-05
-8.67232e-06
1.39428e-05
-1.36089e-05
1.31399e-06
-1.19906e-06
3.56656e-07
5.99896e-06
-3.53456e-06
-3.13511e-06
6.30944e-06
-1.53844e-06
-4.771e-06
-5.53265e-07
1.17099e-05
-1.53957e-05
-1.04423e-06
-1.23105e-05
-1.46531e-05
1.567e-06
4.68223e-06
-6.24923e-06
-1.39646e-05
3.83375e-06
-8.60475e-06
-5.93131e-06
-3.92252e-06
-7.29226e-06
1.3955e-05
6.6274e-06
-3.47176e-06
-2.68272e-06
1.20673e-05
-2.20433e-06
2.66339e-06
2.35882e-06
7.20602e-06
9.55329e-07
-2.99172e-06
-6.16128e-06
1.33673e-05
-3.62805e-06
1.15513e-05
7.43496e-06
-4.38889e-06
3.48528e-06
3.64196e-06
-8.58929e-06
2.42802e-06
-5.10402e-06
-1.68253e-05
-1.62617e-06
1.84515e-05
1.2638e-05
-9.97864e-06
-4.84248e-06
-5.65174e-06
1.04942e-05
6.13368e-06
-7.05306e-06
2.75385e-06
-8.40559e-06
1.44734e-05
-1.36898e-05
-1.13836e-06
1.64953e-05
1.36356e-05
-1.4774e-05
-7.33392e-07
1.4369e-05
-1.44945e-05
1.37612e-05
-5.98346e-06
9.51908e-06
-3.53562e-06
4.51077e-06
-1.61207e-05
-2.74384e-06
8.73544e-06
-5.9916e-06
7.87006e-06
-1.06139e-05
5.00856e-06
3.72688e-06
-7.60486e-06
4.23568e-06
3.36918e-06
5.3891e-06
-5.1239e-06
-3.46664e-06
7.70233e-06
6.93101e-06
4.40297e-06
3.29936e-06
1.51998e-05
-3.94941e-06
-1.12504e-05
2.99188e-06
-2.8791e-06
1.40198e-05
-1.79692e-05
-3.03243e-06
-1.65748e-06
-4.97765e-06
7.03812e-07
4.99266e-06
-9.26232e-07
-4.06643e-06
1.04789e-06
-2.35628e-05
2.15783e-05
1.06285e-05
-1.15547e-05
-3.21446e-05
1.17771e-05
-2.30275e-05
1.38123e-05
-2.03515e-06
3.17437e-06
-7.2408e-06
-5.7258e-06
-3.09166e-06
-4.14913e-06
3.40851e-06
4.68927e-07
-3.87743e-06
6.05337e-06
-2.64486e-06
8.6178e-06
-8.14888e-06
-4.4542e-09
-3.87298e-06
7.83726e-06
-2.70722e-06
-5.13003e-06
7.8935e-07
1.05631e-06
-5.32417e-06
2.61695e-06
-1.65708e-06
-3.66709e-06
1.05303e-05
-7.91338e-06
7.05779e-07
6.92659e-06
-5.40494e-06
-1.52165e-06
6.36065e-06
5.65939e-07
-1.95658e-06
7.25721e-06
6.80311e-06
2.68589e-06
3.06826e-06
-6.7588e-06
1.08819e-05
-4.1231e-06
9.57003e-06
2.24535e-06
-1.63343e-06
1.40218e-06
8.16784e-06
7.50005e-07
-2.50975e-06
1.37377e-05
1.51782e-05
1.57542e-05
-6.59446e-07
1.35771e-05
2.17703e-06
-7.78246e-06
1.02366e-06
-3.58022e-06
-4.20224e-06
-1.00889e-05
1.09495e-05
8.22609e-07
1.49683e-06
1.81529e-06
8.20139e-06
9.22505e-06
1.06272e-05
-2.73649e-06
-4.06624e-06
6.80272e-06
-5.36371e-06
2.62723e-06
-3.1431e-06
-2.22061e-06
-4.34109e-06
9.36584e-06
-1.18856e-05
-8.43329e-06
2.03189e-05
-1.20073e-05
1.36988e-05
1.15446e-05
-5.37643e-06
-6.16816e-06
3.64388e-06
7.90071e-06
6.27111e-06
7.77471e-06
-1.6208e-05
4.49528e-06
6.34188e-06
6.22571e-06
7.59704e-06
9.89516e-06
-1.30373e-05
8.97106e-06
6.95577e-06
-1.66308e-05
1.9922e-05
-3.29122e-06
3.6881e-06
-2.07567e-06
9.90663e-06
-7.83096e-06
4.29806e-06
-6.37373e-06
6.25239e-06
-1.95432e-06
-5.07561e-06
-1.29812e-06
-2.20484e-06
9.8437e-06
-7.63886e-06
-5.06615e-06
-5.12172e-06
1.01879e-05
-7.271e-06
3.00512e-06
-7.17458e-06
-6.7554e-06
-3.47644e-06
-2.46915e-06
-9.8925e-06
-2.92358e-06
6.76943e-06
2.7768e-06
-1.26693e-05
-4.7618e-06
-7.08674e-06
-1.35138e-05
-7.3814e-06
-8.56517e-06
6.50693e-06
-4.60461e-06
-5.26368e-06
1.19016e-05
-6.63792e-06
-1.15582e-06
1.38646e-05
-1.27087e-05
-1.0346e-05
1.16912e-05
1.16172e-05
-1.15762e-05
3.2296e-06
8.38761e-06
-5.54253e-06
8.77214e-06
1.18563e-07
1.12122e-05
8.50618e-06
1.17918e-06
1.18783e-05
-6.89871e-06
8.07789e-06
-1.08062e-05
6.96585e-06
6.57427e-06
1.19781e-06
-7.77208e-06
-2.09121e-06
6.70911e-06
-4.61789e-06
4.48306e-06
8.63161e-06
-4.14855e-06
-6.78975e-06
-9.29784e-07
7.71954e-06
-5.67158e-06
-1.11818e-06
-1.04861e-05
4.81449e-06
-7.66308e-06
6.5449e-06
6.58146e-06
-8.58852e-07
-5.72261e-06
6.15475e-06
4.26704e-07
-1.06306e-05
9.77172e-06
-8.45565e-06
2.73305e-06
-1.16989e-05
1.78785e-06
9.91107e-06
-1.5517e-08
-3.0656e-06
-6.91992e-06
8.70777e-06
-8.82071e-07
9.2478e-07
7.78299e-06
1.62226e-06
8.38935e-06
2.62634e-06
1.78165e-06
5.97428e-06
-6.77145e-06
4.36919e-06
2.40226e-06
-7.23897e-07
9.90168e-06
1.69392e-05
-2.21201e-06
6.58121e-06
8.27303e-06
-2.35976e-06
8.94097e-06
-1.80292e-06
-4.50446e-06
6.30738e-06
4.70088e-06
-2.49453e-06
-2.20635e-06
2.89796e-06
5.83775e-06
-2.25846e-06
-3.57929e-06
9.27034e-07
4.91072e-06
1.89203e-06
-3.45952e-06
6.76009e-06
-1.84938e-06
3.2871e-06
5.36502e-06
9.14298e-06
-1.12621e-06
-8.01677e-06
9.84061e-06
-6.97632e-07
-1.02386e-05
9.11244e-06
6.30765e-06
-8.2532e-06
1.94554e-06
6.9762e-06
-6.68545e-07
-1.05517e-05
2.29853e-06
6.70688e-06
5.02755e-06
-1.17344e-05
-9.04369e-07
7.61125e-06
9.56065e-06
-1.0465e-05
-8.01565e-06
7.02457e-06
-5.65408e-06
6.0046e-06
-3.50521e-07
-4.22316e-06
-1.43092e-06
9.81091e-06
-3.80632e-06
-2.58056e-06
7.5933e-06
4.1721e-06
3.13504e-06
3.24037e-06
-1.62913e-05
8.92491e-06
7.3664e-06
-7.66174e-06
-8.62957e-06
-6.60414e-06
3.80772e-06
7.76941e-06
5.36677e-06
4.76363e-06
7.4362e-06
8.55752e-07
-4.69245e-06
-6.09008e-06
3.60244e-06
-5.14235e-06
-7.70692e-06
-3.3097e-06
-8.07766e-06
-5.01919e-06
-6.915e-06
-7.44918e-06
6.72638e-06
-1.36414e-05
-4.28736e-06
-1.09811e-05
-2.66028e-06
1.12553e-05
-2.22364e-05
-2.52111e-06
1.13315e-05
-8.81041e-06
6.95455e-06
-9.47566e-06
7.43659e-06
-4.82041e-07
-4.17743e-07
-6.9309e-06
7.34865e-06
-7.46962e-06
5.3948e-06
1.62938e-07
-7.09384e-06
-2.54963e-06
-3.89877e-06
6.4484e-06
-6.8253e-06
9.30322e-06
9.11226e-06
-1.3011e-05
5.50716e-06
-1.5249e-05
9.7418e-06
3.87742e-06
-6.82169e-06
-6.04611e-06
-2.61204e-06
-3.07754e-06
-5.74907e-06
-7.98976e-06
-6.02342e-06
-6.16379e-06
5.62022e-06
-1.16436e-05
-9.22142e-06
-6.13648e-06
-5.10858e-06
-7.81493e-06
2.69103e-06
3.12184e-06
-5.81286e-06
1.07371e-05
-8.04606e-06
7.59225e-06
-4.47041e-06
-3.46191e-06
-2.35096e-06
-2.47114e-06
-6.893e-06
9.36414e-06
-6.04152e-06
6.87116e-06
-8.29639e-07
8.51265e-06
-8.3465e-06
-1.66151e-07
4.26724e-06
-5.59262e-06
1.32537e-06
-1.04247e-07
-8.16343e-06
8.26768e-06
4.16299e-06
-2.95537e-06
-2.63725e-06
7.8989e-06
-6.57352e-06
-3.12055e-06
3.80613e-06
8.6528e-06
1.15567e-05
-1.35763e-05
2.01961e-06
-6.3161e-06
1.78728e-05
-6.64979e-06
-6.92653e-06
-7.2385e-06
6.18974e-06
-7.50441e-06
5.66375e-06
-3.38024e-06
2.56273e-06
5.24907e-06
6.40043e-06
-9.3645e-06
1.02044e-05
-8.39944e-07
-6.8943e-06
-2.4702e-06
4.0513e-07
1.37157e-07
-1.08883e-05
8.41806e-06
8.48389e-07
6.94121e-06
2.891e-06
-2.90119e-06
-4.33659e-06
-6.85073e-06
1.11873e-05
7.00759e-06
-6.65571e-06
-1.95022e-07
-3.78258e-08
9.78062e-06
1.4067e-06
-2.86105e-06
1.0195e-05
1.03491e-05
3.29901e-06
2.9946e-06
-7.99701e-06
-9.14427e-07
8.91143e-06
-7.02581e-07
-7.29443e-06
1.05397e-05
-1.12423e-05
4.94428e-06
-1.22387e-05
1.79586e-06
-9.07587e-06
7.28001e-06
-5.81699e-06
7.61285e-06
6.45026e-06
-1.22672e-05
-1.0744e-06
8.68725e-06
-1.18487e-05
1.55291e-06
1.02957e-05
-7.49269e-07
-1.19275e-06
-7.80124e-06
9.35414e-06
-2.29812e-06
-1.94568e-06
1.12998e-05
-8.64089e-06
2.0334e-06
6.60749e-06
-2.38879e-07
-8.40201e-06
-8.87378e-06
9.55968e-06
-1.01824e-05
1.78042e-06
-2.40775e-06
7.00038e-06
7.05484e-06
3.76313e-06
3.02901e-06
6.837e-06
1.68976e-06
1.95997e-07
1.2778e-05
-1.2974e-05
7.88882e-06
3.65155e-06
-1.15404e-05
8.08481e-06
-5.74636e-06
2.42431e-06
-7.37957e-06
2.71306e-06
-1.36018e-05
-4.47685e-06
-2.6223e-06
-6.45624e-06
-7.04345e-06
-5.97966e-06
3.89278e-06
-6.96153e-06
-7.8993e-06
-1.88258e-06
-3.23151e-06
-5.69252e-06
-1.29865e-06
1.11126e-06
-9.24548e-06
8.13422e-06
-6.57694e-06
7.51346e-06
-9.36521e-07
-5.46568e-06
8.80628e-06
-4.18199e-06
-4.62428e-06
2.7122e-06
6.09408e-06
-1.18523e-05
7.67034e-06
-6.5438e-06
5.1522e-06
1.39161e-06
2.86638e-06
-9.41018e-06
-2.52254e-06
7.67474e-06
7.37867e-06
-5.98707e-06
-1.04791e-05
1.05282e-05
-4.90664e-08
-8.0707e-06
-2.40842e-06
-2.44837e-08
-1.07002e-06
4.435e-06
-2.79635e-06
8.08159e-06
-9.79251e-07
9.22039e-06
3.02376e-06
3.55367e-06
7.29359e-06
7.36798e-06
8.07289e-06
1.06432e-05
-1.42618e-06
-9.217e-06
5.92299e-06
-1.87786e-06
-2.5452e-06
-4.09388e-06
-2.75881e-06
-1.1189e-05
9.76281e-06
-7.12027e-06
-3.60431e-06
-5.20061e-06
-1.11737e-05
1.5039e-06
9.66983e-06
-1.94308e-06
1.50644e-06
-8.30908e-06
9.81298e-06
-2.65991e-06
-6.55025e-07
1.0468e-05
3.9111e-06
-8.27866e-06
-9.1863e-06
-2.85344e-06
-2.80831e-06
4.07724e-06
-2.38159e-06
-4.4977e-06
-6.90147e-06
-1.30906e-05
2.82653e-06
-7.73288e-06
7.66773e-06
-8.10168e-06
-1.11939e-05
3.46107e-06
-2.15989e-06
-9.03406e-06
-6.58307e-07
1.35022e-05
-1.28439e-05
-8.83975e-06
-1.28258e-05
-3.71744e-06
9.00446e-06
-6.53452e-06
-3.10613e-06
7.24987e-06
7.6016e-06
3.20199e-06
3.24522e-06
-5.17766e-06