/*--------------------------------*- C++ -*----------------------------------*\
  =========                 |
  \\      /  F ield         | OpenFOAM: The Open Source CFD Toolbox
   \\    /   O peration     | Website:  https://openfoam.org
    \\  /    A nd           | Version:  6
     \\/     M anipulation  |
\*---------------------------------------------------------------------------*/
FoamFile
{
    version     2.0;
    format      ascii;
    class       volScalarField;
    location    "0.3";
    object      p;
}
// * * * * * * * * * * * * * * * * * * * * * * * * * * * * * * * * * * * * * //

dimensions      [0 2 -2 0 0 0 0];

internalField   nonuniform List<scalar> 
127306
(
0.0251827
0.0247598
0.025524
0.0255676
0.0482373
0.0484026
0.0486962
0.0323268
0.0321783
0.0327981
0.0325053
0.0330916
0.0665249
0.0664365
0.0665566
0.0665059
0.0665885
0.0250502
0.024805
0.0249628
0.0251356
0.034003
0.0335778
0.0333418
0.0668271
0.0665477
0.0668072
0.0669883
0.0346053
0.0666606
0.066673
0.0667367
0.0666448
0.03507
0.0349999
0.0348796
0.0666712
0.066674
0.0466072
0.0356245
0.0354431
0.0352499
0.0663487
0.0664742
0.0663904
0.0664878
0.0243305
0.024537
0.0246918
0.0363751
0.0360943
0.0191833
0.0201405
0.0195669
0.0201668
0.0195041
0.0238648
0.0240519
0.024083
0.0367335
0.036775
0.0364326
0.0374728
0.0372736
0.0369504
0.000190056
0.000288606
0.000177186
4.86805e-05
0.000201387
0.0382727
0.0377971
0.0375429
0.000163445
7.2481e-05
7.91349e-05
-1.64181e-05
0.0469187
0.0469381
0.0470133
0.0384591
0.0384416
0.038362
6.66714e-05
-2.26123e-05
9.91531e-05
0.000269415
0.0390479
0.0387665
0.0385941
0.00013271
0.000133881
0.0395525
0.0394689
0.0391004
0.000257416
0.000185152
0.000259085
-5.3385e-05
0.0234915
0.0235133
0.0236813
0.0407937
0.0395288
0.0393515
0.0271559
0.0275467
0.0278157
0.0275443
0.0402475
0.0402624
0.0407853
0.0200132
0.0192119
0.0410643
0.0411132
0.0412622
0.0269651
0.0270384
0.0335286
0.0330534
0.039405
0.0392084
0.039338
0.039587
0.057045
0.056872
0.0568551
0.0566183
0.0477466
0.0473434
0.0476088
0.0569948
0.057715
0.057193
0.0435666
0.0436058
0.0441467
0.0438422
0.0391117
0.0391548
0.0393192
0.0392515
0.0350834
0.0349257
0.0352886
0.0351897
0.0389313
0.0388718
0.0564386
0.0565811
0.0315593
0.0317221
0.0315643
0.0318791
0.0320135
0.031751
0.0322836
0.0384982
0.058067
0.0313606
0.037387
0.0373382
0.0363074
0.0559793
0.0564423
0.0358422
0.058261
0.0284709
0.0282551
0.0353996
0.000264708
0.000339636
0.000249174
1.56587e-06
0.0348993
0.000149032
0.000124579
0.0344122
0.0589635
-3.31832e-06
0.000115227
-3.45593e-05
-0.000101467
0.0340553
0.0553412
0.0553701
0.0553381
2.29783e-05
0.000123592
0.0663697
0.0663161
0.0662472
0.0663504
0.0229922
0.0230443
0.023434
0.0661636
0.0663338
0.0593595
0.0594761
0.0590589
0.0664916
0.0667206
0.0667879
0.0663231
0.0331104
0.0315588
0.032658
0.0551936
0.0548759
0.0549805
0.0664622
0.0664527
0.031328
0.0315353
0.0314801
0.0308027
0.0404599
0.0407989
0.030379
0.0593062
0.0600698
0.0594302
0.0405118
0.0405698
0.0403936
0.0296421
0.0547186
0.0542715
0.0407023
0.0406604
0.0405959
0.0294358
0.0410411
0.0286033
0.0280546
0.0542997
0.0276467
0.0272144
0.060545
0.0265034
0.0537047
0.0254644
0.0606088
0.0238687
0.0234462
0.0534477
0.0608532
0.0529251
0.0612687
0.05242
0.052749
0.0228666
0.0617447
0.0224717
0.0661886
0.0666013
0.0664733
0.0662473
0.0663082
0.0522121
0.0519851
0.0662846
0.0663944
0.0663113
0.0665266
0.041372
0.0406121
0.0625983
0.0624603
0.0621645
0.0663642
0.0416637
0.0415917
0.041489
0.0663044
0.0426186
0.0431351
0.0514952
0.0663623
0.0429579
0.0663659
0.021856
0.0221615
0.0222057
0.0633259
0.062716
0.0625864
0.0664743
0.0663894
0.0662848
0.0435712
0.0663915
0.0443816
0.0440894
0.0663336
0.0445362
0.044929
0.0450839
0.0512605
0.0664109
0.0636733
0.0663105
0.0228205
0.0664727
0.0225136
0.0664026
0.0665365
0.0665149
0.0222138
0.0639459
0.0637153
0.0664807
0.0505441
0.050853
0.0663654
0.0215234
0.0216585
0.0217621
0.0664491
0.047283
0.0470465
0.0471307
0.0214482
0.0214614
0.0213953
0.0664304
0.06641
0.0667212
0.0667147
0.0669978
0.066974
0.0668793
0.0451024
0.0451353
0.0450815
0.0639788
0.0641798
0.0640363
0.0670916
0.0500838
0.0499466
0.066652
0.0669249
0.0669688
0.0668322
0.0667908
0.0665499
0.0667514
0.0666723
0.06677
0.0213452
0.0667425
0.0665639
0.0665597
0.0664741
0.0661453
0.0663911
0.0665095
0.0663304
0.0664401
0.0665608
0.0662642
0.0664024
0.0663326
0.0205587
0.0208519
0.0213794
0.0646205
0.0650756
0.0651016
0.0663975
0.0496498
0.0498021
0.0456246
0.0464071
0.0662991
0.0661796
0.0664898
0.0208307
0.066312
0.0664466
0.0477284
0.0475953
0.0668213
0.0667378
0.0205254
0.0207058
0.0666073
0.065244
0.0667058
0.0666609
0.0667088
0.066309
0.0663703
0.0467992
0.046401
0.0486373
0.0486665
0.048458
0.0664806
0.0207699
0.0212067
0.0492509
0.0491652
0.0492853
0.0199832
0.0472553
0.0203111
0.0656357
0.065543
0.0387997
0.0480458
0.0101101
0.0099258
0.0098874
0.0101095
0.0096491
0.00942643
0.00930183
0.010717
0.0111205
0.0659522
0.00943887
0.0113126
0.00922046
0.0084901
0.00900969
0.010424
0.0101776
0.00982622
0.0100551
0.00975269
0.00950568
0.00952667
0.0118067
0.0082222
0.0079964
0.00834632
0.0109107
0.0108868
0.00920927
0.012124
0.00764819
0.00758623
0.00787072
0.0110997
0.00884478
0.0384642
0.0125457
0.00737509
0.011625
0.00838536
0.0130132
0.00780388
0.00687896
0.0121574
0.0137721
0.013448
0.00759144
0.00605413
0.0123899
0.0142681
0.0142802
0.0141079
0.0129642
0.0349186
0.00577332
0.0147068
0.014698
0.0146015
0.00655309
0.00710585
0.00710882
0.0333849
0.0335827
0.0135343
0.0325251
0.0326871
0.0324166
0.00546156
0.0149451
0.0150111
0.0149946
0.00641407
0.00633515
0.00642439
0.0136693
0.00492457
0.0386984
0.0154563
0.0158009
0.0158397
0.00598422
0.0044766
0.0147502
0.0368834
0.0368727
0.0364158
0.0371165
0.0159649
0.0161665
0.0160466
0.00561395
0.0363277
0.0033698
0.00395386
0.00416551
0.0148474
0.0147976
0.0392718
0.0164859
0.0165979
0.00478507
0.0351413
0.00333177
0.00343437
0.00325443
0.0149549
0.0154759
0.0153746
0.0171281
0.0168164
0.00414412
0.00443243
0.00443008
0.0157279
0.0160891
0.0157862
0.00276823
0.00320354
0.00381961
0.0167516
0.0169828
0.0171803
0.0173058
0.0175407
0.017586
0.00365643
0.0302297
0.0302594
0.00324193
0.00256071
0.00308469
0.00214772
0.00234028
0.00218166
0.016916
0.0173525
0.0172129
0.000107435
1.24653e-05
0.000109481
4.67991e-05
0.000202624
0.000270434
0.000259327
0.000128806
0.0177241
0.0180027
0.0179412
0.0022395
0.00223551
0.00228756
0.00164157
0.00231283
0.0175614
0.0177113
0.0177144
0.000194866
0.000157375
-0.000185691
9.51947e-05
9.95901e-05
8.20663e-05
0.000166579
3.50502e-05
0.000101116
0.000192844
0.000147411
0.00018302
0.00182509
0.00149706
0.00204126
0.0316297
0.031943
0.000201093
0.0314586
0.0312204
0.031475
0.0179792
0.0180833
0.0177919
9.27801e-05
0.0308632
0.0302091
0.0301828
0.0304288
0.0300416
0.0301899
0.0300352
0.0302127
0.0180494
0.0184682
0.0183978
-8.36047e-05
0.0379522
0.0377459
0.0372616
0.0375942
0.0371415
0.0371281
0.0372807
0.00121297
0.000147755
0.0364134
0.0367187
0.036842
0.000176971
0.00017401
-9.21777e-05
0.0363235
0.0364738
0.0363174
8.02377e-05
5.32268e-05
9.62959e-05
0.000163039
0.000183573
0.0358871
0.0352577
0.0355363
0.000125331
-9.77023e-05
0.0190644
0.0192235
0.0195215
0.0294958
0.0296836
0.0187914
0.0187735
0.0186801
0.0351391
0.0350118
0.0351833
0.0183352
0.033927
0.0342521
0.034585
0.0340665
0.0339708
0.0340749
0.0192034
0.019031
0.0186653
0.00105951
0.000978942
0.0331608
0.0333673
0.0334746
0.000432628
0.000494439
0.0329104
0.0325385
0.0327923
0.0321908
7.55271e-05
8.75977e-05
0.0383941
0.0381532
0.0381827
0.000102811
7.06052e-05
0.0291888
0.0291759
0.0289959
0.0392647
5.37036e-05
0.0391503
0.038914
0.0387957
0.0194633
0.000517016
0.000740679
0.028764
0.0286727
0.0389723
0.0389245
0.0392138
8.1273e-05
0.0393882
0.0397051
0.0394176
0.0405173
0.040413
0.0574086
0.0570586
0.0569743
0.0568432
0.0404687
0.0409564
0.0574279
0.0579932
0.0574002
2.89608e-05
0.0567693
0.0565173
0.0412868
0.0584088
0.056214
0.0585721
0.0557516
0.0319954
0.0319088
0.0589305
0.0552974
0.0592875
0.0549049
0.0253856
0.0250762
0.0594396
0.0596159
0.0596492
0.0255642
0.0256235
0.025636
0.0261974
0.0260902
0.0258832
0.0265885
0.0264785
0.0262186
0.0542127
0.0546181
0.0268566
0.027018
0.0273384
0.0273283
0.0600488
0.0601803
0.0601105
0.0535847
0.0536793
0.0536946
0.0322884
0.0322708
0.0320595
0.0324266
0.0324628
0.0327162
0.0329181
0.0328522
0.0607909
0.0603367
0.0603681
0.0532946
0.0531833
0.0533378
0.0332448
0.0333507
0.0330921
0.0333057
0.0334112
0.0608375
0.0606577
0.033729
0.0335756
0.0527242
0.0527203
0.052811
0.0340004
0.0341265
0.0338977
0.0344103
0.0343637
0.0341344
0.034505
0.0346111
0.0346653
0.0613388
0.06168
0.0346873
0.0523948
0.0524566
0.0523306
0.0353597
0.0355686
0.0356401
0.0357598
0.0617789
0.0361065
0.0359698
0.0357113
0.0521418
0.0522548
0.0520072
0.0363723
0.0364104
0.0365394
0.0367235
0.0366523
0.0368401
0.0370237
0.0369501
0.0620597
0.0619315
0.0373494
0.0374536
0.037255
0.0512164
0.051626
0.0377931
0.0376469
0.0374026
0.0379384
0.0380902
0.0380382
0.0383805
0.0384955
0.038306
0.062348
0.0627056
0.062631
0.0626995
0.0384999
0.0388806
0.0388306
0.0512897
0.039463
0.0396809
0.0399357
0.0398548
0.0631284
0.0631398
0.0630849
0.0401065
0.0402784
0.0403233
0.0504965
0.0508685
0.040599
0.0406132
0.0404025
0.040766
0.0410467
0.0409355
0.0412696
0.0411015
0.0410803
0.0415247
0.0417908
0.0638324
0.0636415
0.0635539
0.0420252
0.0419425
0.0422083
0.042542
0.0429515
0.0427495
0.0430128
0.0433104
0.0431435
0.0498303
0.0497569
0.0496542
0.0434808
0.0444539
0.0442195
0.044706
0.0445588
0.0445311
0.0641245
0.0640289
0.0640994
0.0450657
0.0453409
0.0455052
0.0458605
0.0462802
0.0496262
0.0490888
0.0497613
0.0648624
0.0644864
0.0644582
0.0472618
0.047932
0.0483327
0.0486839
0.0487056
0.0653124
0.0652004
0.0656661
0.0654059
-4.14085e-05
7.13292e-05
-4.31775e-05
0.000141115
0.000204705
6.51104e-05
-1.50991e-05
-0.000116674
6.64375e-05
-5.29992e-05
0.000153008
-1.39749e-05
0.000188607
0.000244152
6.47962e-05
2.95548e-05
-6.38766e-05
0.000125638
-1.85484e-05
0.000152007
5.59816e-05
-2.26856e-05
0.000263099
0.00024914
0.000107422
8.34661e-05
0.036559
0.0365945
0.0362563
0.0367772
0.0364312
0.0364372
0.0367283
0.036591
0.0364671
0.036244
0.0363639
0.0365562
0.036654
0.0364191
0.0365973
0.0368494
0.0368603
0.0372286
0.0364439
0.0364501
0.0366487
0.0366382
0.0363307
0.0365723
0.0363577
0.0362561
0.0365971
0.0365474
0.0365351
0.0357107
0.0360524
0.0359773
0.0353955
0.0367959
0.036599
0.0367601
0.0365908
0.0365561
0.0367012
0.036721
0.0366925
0.0365872
0.0365604
0.0371189
0.0368974
0.0374575
0.0372077
0.036973
0.0370548
0.0373636
0.0666143
0.066776
0.0666643
0.0666059
0.0664379
0.0659783
0.0665858
0.0664692
0.0666129
0.0666067
0.0660432
0.0665555
0.0668113
0.0356137
0.0357527
0.0354229
0.0353726
0.0355391
0.0355057
0.0353606
0.03516
0.0351715
0.0351493
0.0348571
0.0350561
0.0352609
0.0197908
0.0197828
0.0197447
0.0200274
0.0199571
0.0201672
0.0199122
0.0197896
0.037461
0.0373793
0.0375641
0.0373597
0.0370755
0.0370257
0.0371351
0.0372241
0.0369798
0.0372452
0.0367986
0.0371044
0.03724
0.0372949
0.0377252
0.0258363
0.025513
0.0256406
0.0257166
0.0202488
0.0198208
0.0203578
0.0203676
0.0202761
0.0198372
0.0400984
0.0400864
0.0666437
0.0664211
0.0393611
0.0401909
0.0397498
0.0402241
0.0402319
0.0402437
0.0399298
0.0398083
0.0402433
0.0407828
0.0407234
0.0405915
0.0402444
0.0398358
0.0396587
0.039293
0.0393894
0.0393959
0.0397185
0.039323
0.0395662
0.0395732
0.039389
0.0394811
0.0395136
0.0399667
0.0400768
0.0399517
0.0395116
0.0391196
0.0392102
0.0391467
0.0393013
0.0628018
0.0628716
0.0627844
0.063102
0.00295808
0.00330319
0.00292437
9.54498e-06
-2.814e-05
0.000209378
0.000541824
9.36931e-05
0.000147504
0.000310162
0.000615846
0.0391287
0.0391651
0.0391903
0.0390509
0.0387871
0.0388977
0.0391435
0.0390571
0.0391298
0.0390354
0.0389318
0.0390042
0.00137996
0.00104417
0.00124033
0.00126426
0.0652882
0.0655511
0.0654843
0.0653524
0.0263522
0.0262008
0.0261689
0.0263095
0.0251718
0.0253544
0.0250326
0.0251884
0.0248664
0.0356735
0.0353232
0.0352212
0.0353639
0.0348414
0.0354227
0.0350243
0.0350031
0.030888
0.0308049
0.0309433
0.0310839
0.0309062
0.0308027
0.0310548
0.0308128
0.0335834
0.0338652
0.0334162
0.0372378
0.0372688
0.0371654
0.0370688
0.0371826
0.0370964
0.0372377
0.0283512
0.0284268
0.028196
0.0663872
0.0662568
0.0655603
0.0661604
0.0664536
0.0662814
0.0662219
0.06635
-0.000263704
-5.40491e-05
-0.000115828
-6.97409e-05
4.31364e-05
0.00016694
-5.70445e-05
0.000285335
0.000320956
0.0394815
0.0393421
0.0395035
0.0204521
0.0203685
0.0206347
0.0369253
0.0371195
0.0367992
0.000463354
4.83003e-05
3.33739e-05
3.01555e-05
7.55336e-05
0.000228766
0.000180332
0.000299731
2.58853e-06
0.0222016
0.0222427
0.021939
0.0223067
0.03457
0.0345661
0.0347427
0.0346321
0.0329549
0.0325513
0.0326917
0.0334409
0.0326049
0.0667234
0.0658516
0.0654621
0.0664507
0.0667479
0.0667308
0.0667187
0.0667776
0.0669591
0.0392471
0.0394374
0.0394802
0.0393501
0.0393899
0.0199159
0.0195181
0.0195527
0.0195664
0.0198787
0.0191546
0.0664292
0.0662666
0.0411451
0.0411158
0.0411023
0.0409631
0.0282038
0.0283125
0.0280615
0.0282808
0.0622011
0.062396
0.0623049
0.0624259
0.0622568
0.0244685
0.0248104
0.0248694
0.0250624
0.0665927
0.0663541
0.0664076
0.0287875
0.0289761
0.0288469
-0.000161088
-0.000554945
-5.53461e-05
-0.000480695
-1.76873e-05
6.1868e-05
4.357e-05
-0.00011356
0.0450336
0.0450493
0.0449971
0.0467098
0.0465765
0.0467745
0.0330969
0.0330089
0.0330645
0.0329853
0.0364679
0.0365068
0.0368361
0.0670069
0.0671091
0.0666244
0.0668635
0.0665963
0.000397196
0.000113776
-9.02684e-05
0.000568474
2.26289e-05
0.000187218
0.0217088
0.0217031
0.0216466
0.0216283
0.021716
0.00012263
-2.71878e-05
8.82623e-05
-4.71163e-05
-8.57973e-05
-8.85823e-05
-0.000104176
0.000331729
0.000492488
0.000376392
0.00050975
-5.51103e-05
-0.00011592
0.000106695
-3.40778e-05
0.0665244
0.0664551
0.066479
0.0664644
0.0664474
0.0662699
0.0665769
0.0657406
0.0655166
0.0653106
0.0656446
0.066516
0.0664625
0.066321
0.0665758
0.0658756
0.0665639
0.06646
0.0663154
0.0665003
0.0665343
0.0664869
0.0665945
0.0665579
0.066673
0.0664414
0.0658942
0.0658704
0.0658025
0.0665278
0.0656326
0.00051863
4.98857e-05
9.89919e-05
-3.61917e-05
0.000110837
-2.83888e-05
-1.11462e-05
-9.95729e-05
3.69994e-05
-1.72053e-05
0.000417291
0.000389192
0.000512169
0.000440332
-0.000152986
-6.36123e-05
0.0244707
0.0242599
0.0470114
0.0467243
0.046789
0.0472198
0.0470238
0.0470972
0.0471467
0.0466094
0.0466363
0.0467473
0.0321024
0.0320863
0.0323206
0.0314816
0.0311667
0.0314661
0.031407
0.0208957
0.0209141
0.0208988
0.00338942
0.00321607
0.00300608
0.00296441
0.00315565
1.87621e-05
7.3656e-05
0.0663956
0.0663278
0.0663758
0.0412335
0.0409692
0.0410838
0.0409887
0.040835
0.020195
0.0200019
0.019685
0.0480703
0.0483087
0.0483373
0.0194649
0.0194857
0.0193418
0.0194782
0.019752
0.0196871
0.0485034
0.0485819
0.0484151
0.0483579
0.0484673
0.0485893
0.024213
0.0240543
0.0241945
0.0665816
0.0665083
0.0665529
0.0664876
0.0196618
0.0197013
0.0194167
0.0195674
0.0197069
0.0193774
0.0195789
0.0476604
0.0470521
0.0477367
0.0476613
0.0475312
0.047595
0.0476982
0.0475263
0.0472306
0.0473293
0.0471748
0.0479973
0.0482952
0.0194039
0.0195653
0.0195728
8.42464e-05
-3.79934e-05
0.0309765
0.0310748
0.0312507
0.0314608
0.031095
0.0283285
0.0286211
0.0285613
0.0286788
0.0285221
0.0340361
0.0343044
0.0337539
0.0187145
0.0188927
0.00125914
0.00121281
0.000801198
0.0010906
0.0489321
0.0488732
0.0489791
0.0189034
0.0190537
0.0189803
0.0282375
0.0281018
0.0282053
0.0439637
0.044061
0.0439858
0.0490244
0.0489636
0.0489273
0.0361689
0.0363344
0.036283
0.0664716
0.0664345
0.0664485
0.0244276
0.0244251
0.0244652
0.0243251
0.0403562
0.0398506
0.0393613
0.0401622
0.0400828
0.039893
0.0401708
0.0378857
0.0373761
0.0371282
0.0374931
0.037144
0.0371932
0.0371498
0.0372787
0.0373621
0.0380482
0.037986
0.0380004
0.037748
0.0377757
0.0377951
0.0374592
0.0375572
0.0375449
0.0651394
0.0649812
0.0652383
0.0409893
0.0408205
0.0406498
0.0196849
0.0204087
0.02054
0.0200343
0.019852
0.0194253
0.0198116
0.0195901
0.0200772
0.0193724
0.0196894
0.0197438
0.0196646
0.0197833
0.0196067
0.0664611
0.0664575
0.0664755
0.066631
0.0665891
0.0664562
0.0305626
0.0307106
0.0308857
0.0307403
0.0307836
-4.23472e-05
-6.35e-05
3.25275e-05
9.56027e-05
0.0226872
0.0225292
0.0227145
0.0456952
0.0459084
0.0458256
0.0457497
0.030186
0.0298296
0.029918
0.0301522
0.0349134
0.0347663
0.0346489
0.044144
0.0440335
0.0438336
0.0440023
0.0330686
0.0328787
0.0326662
0.0327565
6.6487e-05
7.93552e-05
0.0425749
0.0423923
0.0425146
0.0315007
0.0315644
0.0315349
0.0041048
0.00428084
0.0042744
0.0561644
0.05602
0.0562367
0.0663413
0.0665079
0.0665791
0.066709
0.0258574
0.0259352
0.0254608
0.0251188
0.0249081
0.0253541
0.0252847
0.0252238
0.0444073
0.0445813
0.044212
0.0264032
0.0265372
0.026513
0.0262247
0.0265666
0.05813
0.0582097
0.0582049
0.0665133
0.0664259
0.06645
0.0318368
0.0316436
0.0317865
0.0315507
0.0316453
0.0556387
0.0557886
0.0558803
0.00905951
0.00915894
0.00908751
0.0480784
0.0483909
0.0481376
0.010915
0.0110552
0.0111865
0.0659162
0.0664898
0.0665548
0.0664518
0.0655017
0.066149
0.066773
0.0085427
0.00864814
0.00843334
0.0663069
0.0660706
0.0663764
0.0664658
0.0663223
0.0663672
0.0579231
0.058153
0.0580155
0.00920232
0.00904372
0.00923573
0.0482172
0.0481813
0.0168367
0.0166639
0.0169627
0.0172921
0.046119
0.0462694
0.0463488
0.0463165
0.0465146
0.0465213
0.0464501
0.0464191
0.0506359
0.0501357
0.0505253
0.0273124
0.0274147
0.0270154
0.0272896
0.0426195
0.0422709
0.0663849
0.066227
0.0405096
0.0403475
0.040508
0.0406092
0.03802
0.0381317
0.0381389
0.0378307
0.0374886
0.0380363
0.0379902
0.0375248
0.0376648
0.0374377
0.0377635
0.0376622
0.0376517
0.0378176
8.96958e-05
-0.000136736
-2.41759e-05
9.32164e-06
7.97371e-05
1.14978e-05
-0.000253733
0.0289674
0.0290408
0.0290346
0.0289922
0.0289314
0.034151
0.0341565
0.0343519
0.0339434
0.0402018
0.0401794
0.0402403
0.0403135
0.0402509
0.045368
0.0452803
0.00368945
0.00364977
0.00375079
0.0167955
0.0170239
0.0174408
0.0627647
0.0628192
0.062828
0.0456409
0.0456391
0.0456883
0.0457159
0.045592
0.0456264
0.0329894
0.0331547
0.0329297
0.0328291
0.032708
0.0312784
0.0312589
0.031192
0.031215
0.0312092
0.0310192
0.0232793
0.0236248
0.0235866
0.0484073
0.0484711
0.0484467
0.0480074
0.0479422
0.0482159
0.0480692
0.0477691
0.0481012
0.047958
0.0479169
0.0480163
0.0479967
0.0386227
0.0387279
0.0385959
0.0384031
0.0205995
0.0214755
0.0214184
0.000801864
0.00105651
0.000825374
0.00032975
0.000957018
0.000847405
0.000341228
0.000408425
0.000792405
0.0456887
0.0455417
0.0454714
0.0650938
0.0650885
0.0653225
0.0651384
0.0652579
0.0660633
0.0667544
0.0662293
0.0650989
1.57295e-05
-0.000164281
7.90978e-05
3.0635e-05
0.00019235
-2.29356e-05
3.01474e-05
0.0457594
0.0451801
0.0450152
0.0455333
0.0455926
0.0450323
0.0334828
0.0336269
0.0334876
0.0382273
0.0383243
0.038461
0.022527
0.0226889
0.0225675
0.0293773
0.0294985
0.029389
0.0294698
0.0296817
0.0293848
0.0190184
0.019017
0.0187604
0.0647667
0.0646656
0.0648422
0.0438767
0.0440994
0.0436204
0.0436804
0.0211875
0.0211352
0.0211333
-0.000218638
7.1218e-05
6.57382e-06
0.0404752
0.0404749
0.0638767
0.0638091
0.0636517
0.0638794
0.0305038
0.0306096
0.0304736
0.0368227
0.0370333
0.0371357
0.0371025
0.0373792
0.0240091
0.0245383
0.0245954
0.0246527
0.0239509
0.0271989
0.0273331
0.0271013
0.0396043
0.0395724
0.0394579
0.039448
0.00216086
0.00159873
0.0021112
0.027685
0.0278324
0.0277819
0.0316466
0.0316258
0.0315991
0.0648561
0.0647813
0.0647716
0.00917906
0.00919929
0.00916724
0.00897359
0.00906525
0.0288914
0.0282871
0.0288773
0.00210549
0.00154006
0.00202123
0.057371
0.0574014
0.0572935
0.0572843
0.0641635
0.0641727
0.0638614
0.0641034
0.0400114
0.0399223
0.0399506
0.0401622
0.010267
0.0105283
0.0102061
0.0104017
0.0415265
0.0418553
0.0415771
-8.48587e-05
0.00014545
6.44539e-05
8.98703e-05
0.0106043
0.0101614
0.0103887
0.0570053
0.0573884
0.057415
0.057215
0.0573486
0.0572218
0.0568298
0.0570046
0.0568259
0.056972
0.0358454
0.0357461
0.0360165
0.0567805
0.0569568
0.05685
0.0565341
0.00970268
0.0100499
0.0101594
0.0100715
0.00975691
0.0099322
0.00952811
0.0238381
0.0236169
0.0237945
0.0247907
0.0246119
0.0245822
0.0572416
0.0574553
0.0569336
0.0570184
0.057291
0.0576231
0.0574183
0.0571833
0.0282399
0.0281816
0.0283745
0.0105004
0.0106012
0.0104579
0.0104677
0.0102611
0.010043
0.0104286
0.0100843
0.0103785
0.0102906
0.0323764
0.0321643
0.0322833
0.0358312
0.0359392
0.0360086
0.0359523
0.00197448
0.00234672
0.00225873
0.00274615
0.0246371
0.0242496
0.0244173
0.0248955
0.031321
0.031271
0.0309146
0.0310033
0.0309019
0.0311122
0.0308599
0.0371815
0.0374647
0.0371171
0.0373425
0.0371819
0.0292078
0.0289501
0.0290414
0.0290407
0.0412995
0.0411779
0.0413291
0.0292437
0.0295231
0.0291863
0.0293965
0.0292232
0.0630871
0.0632867
0.0628862
0.0631152
0.0499198
0.0503649
0.0505217
0.0504151
0.0503973
0.0337446
0.0335785
0.0335587
0.0630694
0.0630489
0.0626008
0.063028
-5.97315e-05
-5.9024e-05
-5.31789e-05
0.000144693
-6.5023e-05
1.64997e-05
0.000579888
0.000395828
0.000756013
0.0220991
0.0223529
0.0222217
0.00258295
0.00272696
0.00233027
0.0288336
0.0288967
0.0289689
0.0226698
0.022794
0.022853
0.0227926
0.0230127
0.050529
0.0507454
0.0503536
-0.000154726
-0.000143019
-5.75058e-05
0.00505597
0.00483037
0.00475416
0.00469313
0.0283536
0.0283258
0.0277658
0.0282625
0.028168
0.0196811
0.0193735
0.0198539
0.020539
0.0203609
0.0197897
0.0206908
0.0199259
0.0194733
0.0193345
0.0196963
0.019299
0.0348223
0.034834
0.0348411
0.0348925
0.0346198
0.0348024
0.0354626
0.0353205
0.0349201
0.0350112
0.0349919
0.0350211
0.0345489
0.0345825
0.0341973
0.0347662
0.0347835
0.034833
0.0346246
0.0652291
0.0652526
0.064633
0.00469484
0.00448678
0.00443625
0.00442856
0.00461871
0.0455247
0.0455337
0.0456095
0.0285286
0.0287717
0.0287149
0.0622616
0.0621545
0.0622311
0.0620016
0.049742
0.0496203
0.0492003
0.0646415
0.064594
0.0644674
0.0649107
0.00141978
0.00136083
0.00147771
0.0490661
0.0491069
0.0492641
0.0177029
0.0173341
0.0170442
0.0172788
0.0169744
0.0184707
0.0183573
0.0183629
0.0662424
0.0663491
0.0180368
0.0181283
0.0492534
0.0493399
0.0490416
0.0629419
0.0627129
0.0627972
0.0628569
0.0627638
0.00141302
0.000527215
0.00146462
0.000925371
0.0343755
0.0343748
0.034403
0.034438
0.0345712
0.0344499
0.0342859
0.0183466
0.0182854
0.0182309
0.0183421
0.0181666
0.0183081
0.0487631
0.0490554
0.0489292
0.0489175
0.0487516
0.0487324
0.0183329
0.0184359
0.018427
0.064864
0.0649516
0.0650403
0.0650937
0.0648757
0.0649005
0.000314753
0.000760528
0.000221727
0.000638881
0.000823834
0.041876
0.0419426
0.0419553
0.0421913
0.0420081
0.0491745
0.0494649
0.0493932
0.0493003
0.0495402
0.0491557
0.0290534
0.028947
0.0287292
0.0291517
0.0292338
0.0289277
0.0178719
0.0182295
0.0185343
0.0181448
0.0174341
0.0491648
0.0490126
0.0489223
0.0494271
0.0179291
0.018305
0.0183607
0.0182124
0.0178037
0.0188044
0.0183607
0.0182556
0.00124919
0.00118092
0.00125085
0.0015676
0.00111672
0.00123753
0.00142327
0.00129708
0.00148963
0.00127579
0.00174206
0.0656237
0.0665436
0.0654656
0.0662534
0.0655952
0.0449611
0.0451957
0.0451782
0.0652848
0.0651068
0.0652604
0.0649993
0.0650944
0.0644339
0.0632385
0.0632089
0.0630174
0.0168703
0.0170207
0.0171646
0.0503631
0.0505535
0.0505372
0.0504581
0.0168528
0.0171524
0.0171208
0.000415942
0.000655923
0.00023832
0.000527246
0.000388677
0.0455631
0.045522
0.045548
0.0453497
0.0634959
0.0633489
0.0632313
0.0278731
0.0279998
0.00470816
0.00455346
0.00460062
0.0334001
0.0331964
0.033577
0.0336305
0.0337024
0.0335244
0.0337359
0.0624147
0.0621661
0.062613
0.0623215
0.0621113
0.0663289
0.0663685
0.0663417
0.0213516
0.0215827
0.021565
0.018168
0.0181623
0.0182117
0.0312668
0.0312491
0.0312487
0.0312981
0.0312769
0.0311182
0.0311526
0.0310153
0.0495949
0.0490852
0.0495713
0.00154897
0.00198014
0.00168471
0.0638991
0.0633589
0.0632922
0.0637658
0.0492769
0.0491058
0.0423018
0.0424361
0.0420693
0.0421514
0.0645004
0.064586
0.0647159
0.0304515
0.0305151
0.0306214
0.0505955
0.0508574
0.0508347
0.0509436
0.0175145
0.0176512
0.0477651
0.0477204
0.0190648
0.0195611
0.0197589
0.0195608
0.0372095
0.0374813
0.0378085
0.0375918
0.0371479
0.0375746
0.038374
0.038814
0.0386751
0.0388754
0.038748
0.0387695
0.0387774
0.0388395
0.0383384
0.038763
0.0386061
0.0379342
0.0385262
0.00115695
0.001296
0.00159099
0.064529
0.0648817
0.0647268
0.0261277
0.0259757
0.0254111
0.0259631
0.0279528
0.027964
0.0279055
0.0278968
0.0278808
0.0340196
0.0337874
0.0337418
0.0643519
0.0641881
0.064299
0.00173236
0.0016227
0.00146069
0.0649266
0.0647349
0.0649735
0.0648715
0.0464749
0.0462896
0.0464039
0.0636828
0.0641782
0.064158
0.0278419
0.0277868
0.0281514
0.028251
0.0287635
0.028244
0.0289489
0.0288575
0.029143
0.0448995
0.0449191
0.0447021
0.0302504
0.0301939
0.0301597
0.0300848
0.0346665
0.0345508
0.0349093
0.0342959
0.0351001
0.0350892
0.034843
0.00385991
0.00386498
0.0039245
0.0501888
0.0503703
0.0502568
0.0405827
0.0412301
0.0412368
0.0412303
0.0411982
0.0409021
0.0409932
0.00151314
0.00137788
0.001506
0.00155385
0.0627347
0.0627279
0.0627044
0.0235672
0.0237583
0.0231872
0.00368113
0.00366647
0.00389752
0.00379552
0.00387142
0.00390929
0.00310273
0.00318369
0.00319967
0.00245132
0.0031665
0.00317418
0.00315267
0.042642
0.0427023
0.0425951
0.0422573
0.0636548
0.0634545
0.0325204
0.0325627
0.0325039
0.0322797
0.0395481
0.0392888
0.0385576
0.0389143
0.0397797
0.0398837
0.0398114
0.0401464
0.0399365
0.0467834
0.046668
0.0467417
0.0464775
0.00486437
0.00500054
0.00297081
0.00305952
0.00286013
0.038935
0.0389906
0.0386548
0.038875
0.0389761
0.0232684
0.0227301
0.0228608
0.0229409
0.0228211
0.00287903
0.00289935
0.00272438
0.0458842
0.0456656
0.0458261
0.0457819
0.0463144
0.0261618
0.0259674
0.0259848
0.0260558
0.0260141
0.0259914
0.0650051
0.0656161
0.0654548
0.0655365
0.0652103
0.0171796
0.0166355
0.0171576
0.0171842
0.00132239
0.00142211
0.00120316
0.00135321
0.00128721
0.0506289
0.0506456
0.0506042
0.050808
0.0351274
0.0350724
0.0351642
0.0402125
0.0405908
0.0402821
0.0665431
0.0661643
0.0662553
0.066362
0.0661963
0.0652166
0.0650069
0.0652235
0.0651268
0.0651035
0.0653876
0.0659127
0.0663155
0.0662812
0.0663057
0.0362322
0.0360952
0.0361425
0.0361287
0.0166447
0.0172211
0.0173753
0.0172536
0.0638324
0.0640175
0.0640718
0.0345525
0.0347793
0.0347335
0.0346035
0.0349356
0.034917
0.0347392
0.00074879
0.000854588
0.000760437
0.000556388
0.000399736
0.000459458
-4.6009e-05
1.32407e-05
-3.00623e-05
1.3157e-05
1.15241e-05
-9.03047e-06
-1.36518e-05
0.000141653
0.000190952
0.0339217
0.0340506
0.0339423
0.0337944
0.0339609
0.0338748
0.0337677
0.0338363
0.000374212
0.00036988
-0.000393444
-2.90494e-05
-0.000684282
-0.000493901
1.13344e-05
0.000148394
0.000203949
0.000329914
6.52557e-05
0.0361684
0.0362277
0.0361496
0.0362176
0.0358937
0.0210491
0.0207027
0.0211965
0.0211045
0.0209638
0.020942
0.0569099
0.0567688
0.0565906
0.0562936
0.0641756
0.0640957
0.0640606
0.0329276
0.0328404
0.0328639
0.0328988
0.0405704
0.0406184
0.0406074
0.0403373
0.0401276
0.0401295
0.00472738
0.00462597
0.00490522
0.004735
0.00477663
0.00489369
0.00478627
0.0573217
0.0570894
0.0573126
0.0345298
0.0340618
0.0341957
0.0342752
0.0346675
0.0345493
0.0352554
0.0348766
0.0346317
0.0346173
0.0346248
0.0344743
0.0347182
0.0348247
0.034782
0.0507467
0.0510122
0.0506079
0.027838
0.0276992
0.0391948
0.0392642
0.0391622
0.0389852
0.0391768
0.0390831
0.0287763
0.028836
0.0287799
0.0289147
0.0288703
0.0289905
0.0286326
0.00303099
0.00292078
0.00300587
0.0295507
0.0293801
0.0296597
0.0296894
0.0242772
0.0242234
0.0663666
0.0667639
0.0664858
0.066864
0.0665556
0.0666118
0.0667341
0.0667152
0.0664491
0.0658046
0.065501
0.0569975
0.0569434
0.0568984
0.0410024
0.0412494
0.041055
0.0413592
0.0209463
0.0200696
0.0196978
0.0203798
0.0223235
0.0223851
0.0227559
0.0226973
0.0663545
0.0664529
0.0666804
0.0663643
0.0664912
0.0665238
0.0506562
0.0506646
0.0506321
0.050743
-0.000162244
-0.000161249
6.64255e-05
3.98095e-05
4.36298e-05
-7.66242e-05
-0.000601464
0.0103837
0.0100826
0.0101353
0.0283781
0.028291
0.0287189
0.0287235
0.0320464
0.0320435
0.0317724
0.0166577
0.0169734
0.0169899
0.0168541
0.0570805
0.0571611
0.0572075
0.0167977
0.017128
0.0168339
0.0169892
0.00969122
0.00957456
0.00941428
0.00953907
0.0180369
0.0182872
0.0185535
0.0182693
0.0184242
0.00106493
0.00110447
0.000907475
0.000974131
0.000589966
0.00100162
0.0487668
0.048946
0.0486353
0.0487798
0.0485794
0.0488692
0.00246842
0.0026235
0.00261152
0.022393
0.023199
0.0233733
0.0234892
0.0151168
0.0157439
0.0155244
0.0156104
0.0337714
0.034113
0.034187
0.0341771
0.0343443
0.0311884
0.0312056
0.0312708
0.0311404
0.0310737
0.0309531
0.010537
0.00948689
0.0102164
0.0101467
0.0188266
0.018853
0.0186988
0.0187601
0.0185618
0.0182711
0.0102382
0.0104703
0.0103492
0.0566641
0.0567411
0.0569206
0.0404351
0.0402127
1.00873e-06
-0.000190704
0.000154317
0.000111417
0.0345193
0.0347909
0.0349411
0.0156093
0.0156399
0.0155186
0.0156045
0.030372
0.0304035
0.0300443
0.0302808
0.0296884
0.0290029
0.0292426
0.0292645
0.0292484
0.0287307
0.0520701
0.0521666
0.0522681
0.0518181
0.0441354
0.0444112
0.0441262
0.0440444
0.0440878
0.0443502
0.044218
0.0444431
0.0444488
0.00357766
0.00400756
0.00360558
0.00380282
0.0334901
0.0333132
0.0331252
0.0331228
0.0334395
0.0192231
0.0192712
0.018872
0.0193121
0.0192948
0.0186196
0.0189695
0.018583
0.0181786
0.0186538
0.0428419
0.0425283
0.0428958
0.0429952
0.0430907
0.0427015
0.000107077
-0.000361448
9.75375e-05
9.27194e-05
0.000235735
9.39391e-05
-0.000112908
0.00333597
0.00328865
0.00359883
0.063069
0.0628493
0.0628275
0.0629322
0.0637962
0.0639158
0.0637255
0.0640235
0.0639759
0.0639561
0.063749
0.0452115
0.0452288
0.0449863
0.0450545
0.0451014
0.0448859
0.0449124
0.0372493
0.037271
0.0375138
0.0371933
0.037668
0.0376199
0.0375339
0.0399778
0.0398735
0.0489274
0.0489459
0.0487763
0.0489012
0.0487314
0.0489614
0.0330905
0.0332005
0.0333641
0.0334277
0.0337245
0.0335492
0.0333127
0.033459
0.0630999
0.0631001
0.0630614
0.00966132
0.00949017
0.00923007
0.00880928
0.0203807
0.0205062