/*--------------------------------*- C++ -*----------------------------------*\
  =========                 |
  \\      /  F ield         | OpenFOAM: The Open Source CFD Toolbox
   \\    /   O peration     | Website:  https://openfoam.org
    \\  /    A nd           | Version:  6
     \\/     M anipulation  |
\*---------------------------------------------------------------------------*/
FoamFile
{
    version     2.0;
    format      ascii;
    class       surfaceScalarField;
    location    "0.3";
    object      phi;
}
// * * * * * * * * * * * * * * * * * * * * * * * * * * * * * * * * * * * * * //

dimensions      [0 3 -1 0 0 0 0];

internalField   nonuniform List<scalar> 
245676
(
1.27527e-05
-1.53735e-05
2.62078e-06
1.27527e-05
-1.22293e-05
-3.14427e-06
-1.22293e-05
9.19284e-06
-9.19284e-06
-8.01838e-06
-4.60182e-06
1.26202e-05
-8.01838e-06
1.07909e-05
-1.05923e-05
-1.98633e-07
1.07909e-05
1.26714e-05
-1.26714e-05
2.07907e-06
-1.01557e-05
1.01557e-05
5.81391e-06
1.64882e-06
7.67564e-06
2.80459e-06
1.0274e-06
-2.88573e-07
6.60379e-06
8.70304e-06
5.52533e-06
1.08312e-05
-1.10652e-05
2.33925e-07
-1.15646e-05
1.05752e-05
9.89328e-07
-1.08312e-05
-7.33345e-07
1.23345e-05
-1.23345e-05
1.10762e-05
1.25826e-06
9.20511e-07
-8.25907e-06
-5.13707e-06
1.33961e-05
5.81327e-06
5.24703e-06
7.79002e-06
1.43921e-05
-1.14277e-05
1.14277e-05
4.07886e-06
6.73008e-06
5.54376e-06
8.49599e-06
9.12493e-06
3.5449e-06
1.46687e-05
1.20792e-05
-1.20792e-05
1.16319e-05
4.47285e-07
2.04185e-07
6.53278e-06
7.40677e-06
4.88519e-06
8.3126e-06
9.7926e-06
-9.7926e-06
1.18841e-05
-1.18841e-05
1.2484e-05
-5.999e-07
4.04816e-07
6.91696e-06
2.70909e-06
7.49492e-06
-7.38335e-06
6.80539e-06
7.49492e-06
2.79345e-06
-1.15092e-05
1.09052e-05
6.04024e-07
-1.05752e-05
-9.33949e-07
1.06733e-05
-1.06733e-05
-2.76859e-07
1.09502e-05
-1.68223e-05
1.08739e-05
5.94847e-06
1.76393e-05
-8.99353e-06
-8.64575e-06
8.16926e-07
-8.99353e-06
1.08739e-05
-1.12406e-05
1.17065e-05
-4.65959e-07
-1.09052e-05
-3.35388e-07
1.03305e-05
-1.03305e-05
1.20016e-05
-1.67111e-06
1.3283e-06
9.45069e-06
-9.45069e-06
1.15633e-05
-2.11263e-06
1.23283e-06
-4.79497e-06
-3.73848e-06
-7.47889e-06
-2.75858e-06
-8.66294e-08
-7.39226e-06
-1.34066e-06
-6.65948e-06
-6.13563e-06
9.78043e-06
-9.78043e-06
1.08795e-05
-1.09907e-06
1.42881e-06
-9.01455e-06
-7.54496e-06
6.33294e-06
-1.53475e-05
-6.54837e-06
-8.18167e-06
-1.37996e-05
-9.68272e-06
9.68272e-06
1.01427e-05
-1.15526e-05
1.40989e-06
4.59988e-07
9.63798e-06
-9.63798e-06
9.97068e-06
-3.32702e-07
1.90247e-07
-6.16167e-06
-5.03704e-06
-5.28264e-06
-1.02337e-05
9.21382e-06
-1.44965e-05
-5.5266e-06
1.12261e-05
-1.12261e-05
1.02469e-05
9.79257e-07
6.08908e-07
-9.93311e-06
-5.67984e-06
-6.30851e-06
-6.73906e-06
1.33475e-05
-1.33475e-05
1.2232e-05
1.1155e-06
1.00584e-06
-7.72928e-06
-2.72083e-06
6.98535e-06
-6.98535e-06
7.27045e-06
-8.01438e-06
-2.22951e-06
-1.05427e-05
1.13259e-05
-7.83154e-07
-1.17065e-05
1.16377e-06
7.4238e-06
-7.4238e-06
7.39449e-06
2.93119e-08
-5.953e-06
-1.43739e-05
1.01495e-05
4.22442e-06
-1.548e-05
1.10617e-06
-1.548e-05
1.01495e-05
1.00391e-05
-6.83956e-06
1.22029e-05
1.41037e-05
-4.06465e-06
6.54693e-06
-7.59506e-06
7.59506e-06
9.19939e-06
-9.19939e-06
-6.08569e-06
1.26326e-05
4.16841e-06
7.79045e-06
1.15778e-05
-1.56544e-05
1.56544e-05
1.58724e-05
-1.58724e-05
-1.44582e-05
1.44582e-05
1.44406e-05
-1.44406e-05
1.23462e-05
-1.16597e-05
-6.86524e-07
1.23462e-05
-1.41078e-05
2.44818e-06
-1.41078e-05
1.19107e-05
-1.06137e-05
-1.29699e-06
1.14686e-05
4.42114e-07
1.14686e-05
1.20838e-05
-6.15192e-07
-7.71909e-06
1.34948e-05
-5.77567e-06
1.02824e-05
-1.02824e-05
-7.71909e-06
-1.06137e-05
1.18808e-05
-1.27212e-05
8.40459e-07
1.26705e-06
9.61671e-06
-1.10069e-05
1.39023e-06
9.61671e-06
1.16605e-05
-1.16605e-05
6.53553e-07
1.05565e-05
-1.06799e-05
1.23352e-07
1.05565e-05
1.06329e-05
-1.06329e-05
-4.69247e-08
1.05656e-05
-1.02919e-05
-2.73643e-07
1.05656e-05
1.0154e-05
-1.0154e-05
-1.3796e-07
1.22266e-05
-1.26282e-05
4.01626e-07
1.22266e-05
-1.08145e-05
1.08145e-05
1.26927e-06
-6.42005e-06
3.37291e-06
3.04714e-06
-8.6232e-06
2.20315e-06
-9.41416e-06
1.27871e-05
-1.26371e-05
3.22298e-06
-9.50735e-06
-3.12979e-06
-8.6232e-06
-9.50735e-06
-1.4832e-05
1.4832e-05
-1.27212e-05
8.78242e-06
4.00466e-06
-1.4922e-05
1.4922e-05
1.52765e-05
-1.52765e-05
1.49714e-05
-1.49714e-05
-1.21952e-05
1.35709e-05
-1.37567e-06
-1.21952e-05
-1.46201e-05
1.46201e-05
1.27178e-05
-1.27178e-05
1.48292e-05
-1.15479e-05
-3.28132e-06
-6.5081e-07
1.4534e-05
-1.4534e-05
-7.74289e-06
-2.72118e-06
-6.97473e-06
7.36564e-06
-8.1338e-06
-6.97473e-06
-2.3661e-06
1.46168e-05
-1.46168e-05
-1.02519e-05
-5.58377e-06
-6.29476e-06
-6.52205e-06
-1.46965e-05
1.46965e-05
1.22808e-05
-1.22808e-05
-5.72098e-06
-5.36044e-06
-7.47649e-06
-6.83039e-06
5.94055e-06
-1.3417e-05
-9.16603e-06
-1.4611e-05
1.4611e-05
1.04088e-05
3.1621e-06
-1.04088e-05
1.1563e-05
-1.15421e-06
-7.69511e-06
-5.63514e-06
-8.43532e-06
-7.18384e-06
7.0334e-06
2.59006e-06
7.61054e-06
-7.86e-06
7.28286e-06
7.61054e-06
2.30758e-06
-1.24073e-05
1.01677e-05
2.23957e-06
-1.13259e-05
-1.08137e-06
5.17826e-06
7.93552e-06
6.53212e-06
7.34558e-06
1.22455e-05
-1.19265e-05
-3.19027e-07
1.2096e-05
1.49513e-07
1.2096e-05
6.77302e-06
5.82218e-06
4.88752e-06
-3.74527e-06
8.74297e-06
1.16605e-05
7.04434e-06
1.50817e-05
-1.50817e-05
-1.65289e-05
1.35258e-05
3.00315e-06
-1.44721e-06
1.1051e-05
5.12003e-07
-1.1051e-05
1.1663e-05
-6.1198e-07
7.43192e-06
6.74972e-06
5.21318e-06
9.53179e-06
-1.46438e-05
1.3147e-05
1.49688e-06
-1.35258e-05
-1.11805e-06
1.3147e-05
5.28488e-06
4.38873e-06
7.82558e-06
-2.5407e-06
1.4591e-05
-1.4591e-05
-1.19265e-05
1.40947e-05
-1.40051e-05
-8.95739e-08
2.16826e-06
4.56151e-06
4.98887e-06
-3.54737e-06
8.10888e-06
6.00302e-06
1.44403e-05
-1.44403e-05
1.17643e-05
-1.01313e-07
1.17643e-05
4.86482e-06
4.93076e-06
-6.18083e-06
1.10457e-05
3.49287e-06
1.54224e-05
-1.54224e-05
3.66653e-07
1.49454e-05
-1.49454e-05
1.54199e-05
-1.54199e-05
-1.22046e-05
1.22046e-05
-1.55506e-05
1.55506e-05
-1.56275e-05
1.56275e-05
-1.40051e-05
1.80569e-05
-2.18447e-06
-1.19704e-05
1.19704e-05
5.82766e-06
1.25547e-05
-1.25547e-05
1.2431e-05
-1.2431e-05
1.54722e-05
-1.54722e-05
-1.19029e-05
1.19029e-05
1.26839e-05
-1.26839e-05
-1.22088e-05
1.22088e-05
1.25724e-05
-1.25724e-05
-1.32029e-05
1.1854e-05
1.34892e-06
-1.32029e-05
1.01677e-05
1.26483e-05
-1.26483e-05
-1.16439e-05
1.16439e-05
5.97166e-06
6.12878e-06
3.42322e-06
-4.0827e-06
1.2621e-05
9.39488e-06
3.50022e-06
-3.38207e-06
1.14179e-05
9.629e-06
1.02604e-05
1.59363e-06
1.02604e-05
8.72099e-06
4.07088e-06
-3.83482e-06
1.17608e-05
1.27919e-05
8.70319e-06
1.34481e-05
-1.31353e-05
-3.12758e-07
1.34481e-05
1.26754e-05
-1.16093e-05
-1.06609e-06
1.13143e-05
1.36103e-06
1.13143e-05
8.98472e-06
-1.1957e-05
-1.17832e-06
1.1957e-05
-1.5554e-05
3.59701e-06
3.38875e-06
9.47737e-06
-1.41348e-05
-1.4192e-06
-1.41348e-05
1.17823e-05
-1.17823e-05
7.39997e-06
5.5648e-06
-1.37664e-05
1.37664e-05
7.49656e-06
5.22582e-06
-1.23863e-05
1.05765e-05
1.80981e-06
-1.25252e-05
1.38904e-07
-1.25252e-05
1.36227e-05
-1.30166e-05
-6.0617e-07
1.16093e-05
2.01345e-06
4.65658e-06
-4.26511e-06
1.24817e-05
-8.47243e-06
1.3129e-05
4.39821e-06
1.40146e-05
-1.40146e-05
7.18799e-06
5.39735e-06
1.15447e-05
-1.3203e-05
1.65832e-06
1.15447e-05
8.45952e-06
-1.32424e-05
3.9397e-08
1.32424e-05
-1.3059e-05
-1.83387e-07
-1.21479e-05
1.21479e-05
5.48275e-06
7.14092e-06
-1.30166e-05
7.48283e-06
5.24061e-06
1.46146e-05
-1.46146e-05
5.73005e-06
7.49303e-06
1.43961e-05
-1.43961e-05
8.67086e-06
4.60739e-06
4.43476e-06
-3.91001e-06
1.28189e-05
1.31056e-05
1.44078e-05
-1.44078e-05
1.21376e-05
-1.21323e-05
-5.25667e-09
1.21376e-05
7.33633e-06
5.76435e-06
-1.34705e-05
1.27484e-05
7.22099e-07
-1.34705e-05
9.21784e-06
-1.14373e-05
1.11455e-05
2.91803e-07
-1.05765e-05
-8.60802e-07
6.55128e-06
5.0715e-06
1.13042e-05
-1.084e-05
-4.6421e-07
1.15526e-05
-2.4835e-07
-1.0565e-05
1.15299e-05
-9.64865e-07
-1.11455e-05
5.8045e-07
6.78494e-06
4.84327e-06
3.63693e-06
1.05244e-05
-3.37529e-06
5.09705e-06
5.96707e-06
4.16897e-06
-4.67319e-06
4.38606e-06
1.2742e-05
6.31377e-06
1.14108e-05
-1.19588e-05
-1.10016e-06
1.19588e-05
-1.24222e-05
4.63424e-07
-1.23191e-05
1.86719e-07
1.23191e-05
-1.37708e-05
1.45169e-06
1.21761e-05
9.41013e-06
3.33828e-06
9.41013e-06
6.32009e-06
1.43885e-05
-5.54602e-06
4.65259e-06
1.37314e-05
6.49052e-06
1.01275e-05
-5.18291e-06
5.66698e-06
1.33297e-05
7.98045e-06
1.2633e-05
5.62724e-06
6.39508e-06
1.30989e-05
-1.47096e-05
1.47096e-05
4.00786e-06
1.12716e-05
-7.66764e-06
1.16755e-05
6.92415e-06
1.33363e-05
-8.16664e-06
1.50908e-05
-6.53302e-06
6.95443e-06
1.4043e-05
5.49789e-06
8.17432e-06
-7.8126e-06
1.4767e-05
-5.94156e-06
3.8951e-06
1.2622e-05
9.03768e-06
5.34288e-06
1.53578e-05
1.09394e-05
-1.38222e-05
1.0185e-05
3.63719e-06
-1.15299e-05
-2.29232e-06
-1.07338e-05
-3.03698e-06
1.07338e-05
-1.09957e-05
2.61965e-07
5.93549e-06
1.1489e-05
-1.18477e-05
1.19069e-05
-5.92123e-08
-1.18477e-05
-1.54067e-05
2.98449e-06
-1.54067e-05
-6.23294e-06
1.21684e-05
5.66577e-06
4.32193e-06
1.31792e-05
-1.31792e-05
4.95813e-06
6.97663e-06
7.64507e-06
1.24554e-05
1.084e-05
-8.17183e-06
-2.6682e-06
8.22845e-06
1.19384e-05
-6.24426e-06
1.44727e-05
-1.0185e-05
8.22384e-06
1.9612e-06
4.54079e-06
8.0692e-06
2.96215e-07
-1.1292e-05
6.40005e-06
1.06348e-05
-7.62924e-06
1.40293e-05
6.59264e-06
7.2426e-06
1.42377e-05
1.37077e-05
-1.07774e-05
-2.93031e-06
1.37077e-05
1.24118e-05
-1.24118e-05
9.62136e-06
2.79048e-06
1.60298e-06
6.47533e-06
6.11336e-06
-1.35058e-05
1.3219e-05
2.86768e-07
-1.35058e-05
9.63811e-06
-9.63811e-06
-2.0304e-06
1.16685e-05
2.26876e-06
4.22548e-06
-4.94983e-07
6.28777e-07
1.15961e-05
-8.87997e-06
-2.71615e-06
1.15961e-05
-2.82059e-07
1.021e-06
1.09092e-05
-1.3715e-05
2.80579e-06
1.09092e-05
-1.13759e-05
1.23457e-05
-9.69775e-07
-4.66715e-07
1.23457e-05
-1.17482e-05
1.10076e-05
7.40625e-07
5.97491e-07
-1.34658e-05
-2.49215e-07
-1.34658e-05
-1.38505e-06
1.10076e-05
1.28289e-05
-1.28289e-05
1.31243e-05
-1.31243e-05
-1.30642e-05
1.17935e-05
1.27074e-06
6.00271e-08
1.20617e-05
-1.29271e-05
8.65394e-07
1.20617e-05
-1.22765e-05
1.18638e-05
4.12697e-07
-2.14749e-07
1.18638e-05
-1.18544e-05
1.14575e-05
3.96887e-07
9.43926e-09
1.27505e-05
-1.27505e-05
1.17935e-05
-1.39394e-05
1.32001e-05
7.39348e-07
-2.14589e-06
1.34442e-05
-1.34442e-05
5.1709e-07
1.14575e-05
1.29433e-05
-1.29433e-05
-1.23577e-05
1.14158e-05
9.41896e-07
-1.32001e-05
8.42323e-07
1.31554e-05
-1.31554e-05
-1.31622e-05
1.31622e-05
1.35785e-05
-1.33883e-05
1.33774e-05
-1.33774e-05
1.14158e-05
1.25945e-05
-1.25945e-05
-1.3296e-05
1.3296e-05
1.32745e-05
-1.32745e-05
-1.32485e-05
1.32485e-05
-1.36871e-05
1.36871e-05
1.2882e-05
-1.2882e-05
1.11472e-05
-1.31537e-05
2.00654e-06
1.11472e-05
-1.31528e-05
1.31528e-05
-1.33616e-05
1.33616e-05
1.36351e-05
-1.36351e-05
1.08934e-05
-1.33225e-05
2.42911e-06
1.08934e-05
-2.26033e-06
1.34007e-05
-1.34007e-05
-1.56891e-05
1.58933e-05
-1.26913e-05
1.26913e-05
1.09493e-05
-1.32369e-05
2.28766e-06
1.09493e-05
-2.37323e-06
-1.37784e-05
1.25635e-05
1.21484e-06
-1.33703e-05
-4.08081e-07
-1.33703e-05
-1.37127e-05
1.46332e-05
1.10776e-06
-1.35622e-05
1.33812e-05
-1.33812e-05
2.26364e-06
1.29642e-05
-1.31487e-05
2.04197e-05
-1.81561e-05
1.27655e-05
-1.28507e-05
1.28507e-05
1.10097e-05
-1.42835e-05
3.27379e-06
1.10097e-05
-2.22722e-06
1.25635e-05
-1.31644e-05
1.15729e-05
1.59149e-06
-6.0083e-07
1.36349e-05
-1.36349e-05
-1.36157e-05
1.36157e-05
-1.4648e-06
1.2368e-05
-1.09032e-05
-1.10617e-05
-3.2218e-06
1.10617e-05
-1.23998e-05
1.33807e-06
1.15729e-05
-1.3209e-05
1.3209e-05
1.36747e-05
-1.36747e-05
9.27138e-08
-1.8083e-05
1.79902e-05
1.41216e-05
-1.31258e-05
-9.0309e-07
1.10563e-05
3.0653e-06
1.3532e-06
-1.4479e-05
-1.19511e-05
-4.48706e-07
1.19511e-05
-1.2079e-05
1.27935e-07
-1.40393e-05
1.40393e-05
8.60286e-07
1.0196e-05
-1.49496e-05
1.20568e-05
2.89271e-06
-1.42872e-05
-6.62396e-07
-1.42872e-05
1.12166e-05
-1.34985e-05
2.28187e-06
1.12166e-05
-1.31619e-05
1.41678e-05
-1.21326e-05
5.36506e-08
-1.21326e-05
-1.37675e-05
1.37675e-05
-1.86529e-08
1.49347e-05
-1.4916e-05
-1.24285e-05
1.24086e-05
1.98841e-08
-1.20568e-05
-3.71607e-07
-1.26391e-05
-8.5943e-07
1.26391e-05
-1.27092e-05
7.00751e-08
1.18199e-05
-1.20155e-05
1.95608e-07
1.18199e-05
-1.30678e-05
1.18886e-05
1.17921e-06
-1.37208e-05
6.53002e-07
-1.37208e-05
-1.29084e-05
1.99246e-07
1.29084e-05
-1.48443e-05
1.93587e-06
-1.24086e-05
1.3607e-05
-1.19838e-06
1.18886e-05
-1.09703e-05
-3.87396e-06
1.09703e-05
-1.23031e-05
1.33282e-06
-1.19544e-05
-6.11198e-08
1.19544e-05
-1.20561e-05
1.01677e-07
-1.31509e-05
1.31509e-05
-1.12835e-05
1.03275e-06
1.02508e-05
5.69801e-07
-1.27797e-07
-1.17256e-05
1.36488e-05
-1.36488e-05
-1.3539e-05
1.31434e-05
3.95609e-07
1.09798e-07
1.25559e-05
1.05104e-06
-1.25559e-05
1.18001e-05
7.5582e-07
-1.26613e-05
3.58162e-07
1.26613e-05
-1.2882e-05
2.207e-07
7.32018e-06
5.95799e-06
-1.32782e-05
-1.01297e-05
7.87682e-06
6.82568e-06
-1.47025e-05
-6.36731e-06
9.01657e-06
-1.62735e-05
8.33785e-06
6.01942e-06
-1.43573e-05
-6.5091e-06
-5.63715e-06
-1.13352e-05
-7.20814e-07
1.13352e-05
-1.07858e-05
-5.49487e-07
-1.31434e-05
1.22277e-05
9.15733e-07
1.15824e-05
2.17674e-07
-1.15824e-05
1.45963e-05
-3.01384e-06
-1.28241e-05
-5.78466e-08
1.28241e-05
-1.30969e-05
2.72717e-07
-5.49193e-06
-7.27244e-06
-1.82291e-05
6.50668e-06
5.84869e-06
-1.23554e-05
-1.03987e-05
-5.67751e-06
-6.97949e-06
-6.53296e-06
-7.27637e-06
-7.28508e-06
-3.93239e-06
-8.29153e-06
-6.27655e-06
8.23805e-06
-1.65296e-05
-1.04531e-05
3.16806e-06
8.38581e-06
5.62259e-06
-1.40084e-05
-1.44385e-05
1.16333e-05
5.9434e-07
-1.16333e-05
1.44491e-05
-2.81579e-06
-1.30274e-05
1.13125e-05
1.71487e-06
-2.23645e-06
7.97435e-06
-1.56695e-05
1.13125e-05
-1.20799e-05
1.13916e-05
6.88296e-07
-7.67334e-07
-1.21279e-05
1.21279e-05
-1.30755e-05
9.47579e-07
-9.68983e-07
-1.36745e-05
1.13916e-05
-1.10265e-05
1.60314e-06
9.42335e-06
3.65076e-07
-9.28305e-06
1.08862e-05
-1.78576e-07
-8.73939e-06
9.42335e-06
-9.99315e-06
1.10259e-05
-1.18093e-05
1.02357e-06
1.18093e-05
-1.33769e-05
1.56757e-06
-5.18785e-06
9.02467e-06
-8.65047e-06
-3.74201e-07
8.92053e-06
1.04136e-07
-8.92053e-06
9.57155e-06
-6.5102e-07
9.21429e-06
3.57258e-07
-9.2143e-06
1.05675e-05
4.48355e-06
1.01127e-05
-6.41113e-06
-8.08513e-06
-9.6644e-06
1.05247e-05
-9.6644e-06
6.37692e-06
6.83106e-06
-1.3208e-05
-1.17141e-05
-5.68988e-06
-8.96711e-06
1.0696e-05
-1.72891e-06
-8.96711e-06
1.55758e-06
7.33671e-06
-1.23003e-05
6.08053e-06
5.65832e-06
-1.17389e-05
9.07735e-06
-1.47672e-05
-1.34569e-05
1.01467e-05
5.49292e-07
-1.01467e-05
1.01281e-05
7.29428e-06
6.31259e-06
-1.36069e-05
-1.32962e-05
1.32962e-05
-8.72224e-06
-4.57392e-06
2.15164e-06
-1.10259e-05
1.00441e-05
9.81798e-07
1.44837e-05
-1.18751e-06
-1.297e-05
1.297e-05
1.51368e-06
8.835e-06
1.29308e-06
-8.835e-06
1.02137e-05
-1.37868e-06
-1.05479e-07
-1.03856e-05
9.11096e-06
1.2746e-06
-1.03856e-05
-1.71889e-07
9.0487e-06
6.22613e-08
-9.0487e-06
1.11053e-05
-2.05658e-06
1.23429e-05
-8.30053e-06
-4.04237e-06
1.23429e-05
-1.03399e-06
1.01233e-05
4.3258e-06
1.01233e-05
-1.01901e-05
1.1086e-05
-8.95888e-07
-1.01901e-05
9.15163e-07
-1.3158e-05
1.06085e-05
2.5495e-06
-1.3158e-05
1.00756e-05
1.01039e-06
-1.00756e-05
1.19404e-05
-1.86481e-06
2.43307e-06
5.95065e-06
-9.41157e-06
-4.0712e-06
9.13052e-06
-7.9512e-06
-1.17932e-06
8.65047e-06
4.80047e-07
6.90448e-06
-1.19882e-05
-7.36215e-06
1.03781e-05
-3.33947e-07
1.03781e-05
1.18413e-05
-1.46329e-06
-9.88474e-06
9.91406e-06
3.63374e-06
8.65475e-06
-8.73826e-06
8.35123e-08
7.9512e-06
7.03554e-07
8.98858e-07
-1.10887e-05
9.83177e-06
1.25691e-06
-1.10887e-05
1.15479e-05
2.93441e-07
1.03831e-05
-1.18479e-05
8.73826e-06
1.64483e-06
-5.86617e-06
-1.18479e-05
1.1459e-05
-2.7254e-06
-8.7336e-06
-3.88895e-07
-3.93866e-06
9.94168e-06
1.19626e-05
1.17477e-05
-1.01856e-05
-1.56208e-06
1.12264e-05
5.21304e-07
1.12264e-05
1.16816e-05
-4.55161e-07
-5.69524e-06
-1.118e-05
6.99046e-06
-7.64472e-07
-1.01856e-05
1.35726e-05
-1.34267e-05
-1.45859e-07
3.38693e-06
2.84643e-06
1.07041e-05
9.77469e-07
1.07041e-05
-1.34267e-05
-1.28003e-05
1.28003e-05
1.21955e-05
-1.21955e-05
-1.21397e-05
1.21397e-05
8.33449e-06
-9.98594e-06
1.65145e-06
8.33449e-06
1.18537e-05
-1.18537e-05
-1.21181e-05
1.21181e-05
1.21294e-05
-1.21294e-05
-1.22481e-05
1.22481e-05
1.13271e-05
-1.13271e-05
2.61931e-07
-1.13389e-05
1.13389e-05
1.22164e-05
-1.2484e-05
2.67638e-07
8.77513e-07
-1.01188e-05
-1.20824e-06
1.15374e-05
-1.15374e-05
1.41857e-06
1.03389e-05
-1.03389e-05
1.15256e-05
-1.18674e-06
-1.17645e-08
1.12123e-05
-1.12123e-05
1.19958e-05
-7.83438e-07
1.65686e-06
-1.43248e-05
1.40633e-05
2.61544e-07
-1.43248e-05
-8.86077e-06
8.86077e-06
-1.22113e-05
3.35052e-06
1.18338e-05
-1.18338e-05
-3.7749e-07
-1.2484e-05
1.23234e-05
-1.28609e-05
5.37466e-07
-1.60595e-07
1.10681e-05
2.99514e-06
-1.10681e-05
1.31756e-05
-2.10744e-06
9.97137e-06
-1.00251e-05
5.37798e-08
9.97137e-06
-1.45765e-08
9.67809e-06
-9.67809e-06
-3.47057e-07
-9.7063e-06
-5.66764e-07
1.02731e-05
9.7063e-06
-1.04369e-05
7.30596e-07
1.25049e-05
-1.12052e-05
-1.29968e-06
1.28609e-05
-3.5599e-07
1.11412e-05
2.03435e-06
-1.11412e-05
1.34189e-05
-2.27772e-06
9.61002e-06
-1.0409e-05
7.98937e-07
9.61002e-06
-8.26871e-07
1.15474e-05
-1.15474e-05
1.13847e-06
1.12052e-05
-1.28222e-05
1.617e-06
9.96326e-06
-1.04515e-05
4.88251e-07
9.96326e-06
1.10653e-05
2.35365e-06
-1.10653e-05
1.32169e-05
-2.15165e-06
9.2304e-06
-1.00927e-05
8.62296e-07
9.2304e-06
-1.22111e-06
1.02037e-05
-9.92509e-06
-2.78567e-07
1.02037e-05
1.10955e-07
-9.91579e-06
-9.29696e-09
9.91579e-06
-9.9253e-06
9.51102e-09
-1.32415e-05
4.19284e-07
-1.32415e-05
6.40258e-07
-1.08785e-05
1.33982e-05
-2.51967e-06
-1.08785e-05
2.33842e-06
-1.06475e-05
4.93569e-07
-9.62479e-06
-1.02274e-06
9.62479e-06
-1.04834e-05
8.58649e-07
1.15741e-05
-1.15741e-05
1.10439e-05
-4.08476e-07
-1.06355e-05
1.10439e-05
5.60499e-07
-1.00304e-05
1.31175e-05
-3.08704e-06
-1.00304e-05
3.36774e-06
1.006e-05
-1.05441e-05
4.84025e-07
1.006e-05
-1.04251e-05
-1.19013e-07
1.04251e-05
-1.04044e-05
-2.06516e-08
-9.94494e-06
-4.59468e-07
9.94494e-06
-1.09701e-05
1.02517e-06
1.20996e-05
-1.20625e-05
-3.71211e-08
1.20996e-05
9.56474e-06
-1.01126e-05
5.47857e-07
9.56474e-06
-1.40537e-06
-1.15982e-05
1.15982e-05
1.51933e-06
1.07507e-05
-1.05677e-05
-1.8304e-07
1.07507e-05
6.38126e-07
-1.00497e-05
-5.17974e-07
1.00497e-05
-1.11915e-05
1.14176e-06
9.7033e-06
-1.06961e-05
9.92755e-07
9.7033e-06
-1.48816e-06
-1.22089e-05
1.46435e-07
1.21896e-05
-1.21633e-05
-2.63253e-08
1.22089e-05
-1.93327e-08
-1.09155e-05
2.19472e-07
1.09155e-05
-9.89817e-07
-9.92571e-06
1.1473e-05
-1.1473e-05
-1.09285e-05
2.95584e-07
-1.00902e-05
-8.38265e-07
1.00902e-05
-1.05253e-05
4.35091e-07
1.17531e-05
-1.23677e-05
6.14552e-07
1.21633e-05
-4.10152e-07
-9.55712e-06
-9.68217e-07
9.55712e-06
-1.01408e-05
5.83676e-07
-1.3593e-05
1.37827e-05
-1.89736e-07
-1.3593e-05
1.04602e-05
-1.0453e-05
-7.25066e-09
1.04602e-05
3.19422e-07
-1.03716e-05
-8.13554e-08
1.03716e-05
-9.97316e-06
-3.98459e-07
1.03155e-05
-1.06735e-05
3.57989e-07
1.03155e-05
3.42323e-07
-1.17473e-05
1.07383e-06
-1.17473e-05
1.24343e-05
-1.17136e-05
-7.2069e-07
1.23677e-05
6.66339e-08
9.71157e-06
-1.08167e-05
1.10513e-06
9.71157e-06
-1.23338e-05
1.51709e-06
-1.23338e-05
1.01863e-05
-1.06694e-05
4.83094e-07
1.01863e-05
-1.0288e-05
-3.8141e-07
1.0288e-05
-1.0493e-05
2.04952e-07
1.23657e-05
1.41697e-06
-1.23657e-05
1.13346e-05
1.03109e-06
-8.76262e-07
1.03599e-05
-1.0585e-05
2.25043e-07
1.03599e-05
9.72276e-06
-1.11027e-05
1.37996e-06
9.72276e-06
-8.62186e-07
1.28556e-05
-1.18697e-05
-9.85913e-07
1.17136e-05
1.14202e-06
-1.13907e-05
2.87945e-07
-1.13907e-05
-1.03582e-05
1.03582e-05
-1.04813e-05
1.04813e-05
-9.87538e-06
9.87538e-06
1.1013e-05
3.21694e-07
-1.1013e-05
1.34773e-05
-2.46437e-06
1.2153e-05
-1.24806e-05
3.27534e-07
1.18697e-05
2.83311e-07
-1.18386e-05
4.11948e-06
-1.43499e-05
2.51133e-06
-1.43499e-05
1.11588e-05
2.31853e-06
1.11588e-05
-1.24806e-05
-1.34205e-05
1.34205e-05
1.06423e-05
-3.03173e-06
-2.77825e-06
6.66014e-06
5.10385e-06
-1.1764e-05
6.17718e-06
-1.14937e-05
7.21908e-06
5.44999e-06
-1.26691e-05
-8.813e-06
-6.42538e-06
-6.05676e-06
-7.44755e-06
-1.21263e-05
-5.19973e-06
-5.38582e-06
-7.14974e-06
-4.29581e-06
-8.09289e-06
-4.87519e-06
-7.83321e-06
-7.41011e-06
-5.11125e-06
-8.24157e-06
-4.82745e-06
-8.53914e-06
-5.0792e-06
-8.16957e-06
-4.78414e-06
-4.6296e-06
-7.86492e-06
-8.03191e-06
-4.78094e-06
-4.87319e-06
7.14126e-06
-1.45756e-05
-1.29051e-05
-4.80805e-06
7.19498e-06
-1.46201e-05
8.02016e-06
-1.28282e-05
-4.89212e-06
-8.43009e-06
-8.64804e-06
-7.49339e-06
-4.56222e-06
-7.40553e-06
-4.34931e-06
4.7343e-06
-8.25959e-06
3.52529e-06
7.06526e-06
-2.33096e-06
-1.27232e-05
5.37947e-06
7.34369e-06
-3.7157e-06
-4.54389e-06
4.50047e-07
-1.31732e-05
-1.35956e-05
1.40456e-05
4.26205e-06
-8.98419e-06
4.72214e-06
6.99738e-06
-2.73534e-06
-4.75042e-07
3.75673e-06
3.89609e-07
-1.75536e-05
1.7164e-05
1.44453e-05
-1.40557e-05
7.79676e-07
7.00939e-08
-1.8935e-05
1.38139e-06
1.16044e-05
-1.53776e-05
3.77323e-06
-7.89125e-07
-1.88039e-06
-1.34973e-05
-1.59361e-05
-5.0291e-06
-3.95509e-06
-1.04106e-05
7.67525e-06
-4.65617e-06
4.93e-06
-7.48877e-07
-4.93807e-06
9.17521e-06
-4.23714e-06
-4.87209e-06
4.01139e-06
5.16382e-06
4.3975e-06
-1.44414e-06
-1.23296e-05
1.37738e-05
1.37329e-05
-1.51771e-05
-9.5264e-07
-1.25739e-05
1.48548e-05
-1.32823e-05
9.11462e-06
-1.06526e-05
-4.89387e-06
7.14981e-06
-2.25594e-06
2.29612e-07
1.94178e-06
1.85771e-05
4.21845e-06
-2.27956e-05
3.21658e-06
3.93323e-06
1.42177e-05
-2.55352e-06
-1.16642e-05
7.48225e-06
1.59014e-05
-9.16595e-06
1.2218e-05
-1.47715e-05
-7.46048e-07
-3.18262e-07
5.81133e-07
6.15506e-06
-2.32014e-07
-4.05895e-06
6.66735e-06
-2.6062e-06
-4.06116e-06
2.1982e-06
1.06939e-05
-1.49712e-05
-2.33026e-07
-1.35054e-05
-1.50045e-05
1.6758e-06
5.51063e-06
-7.18643e-06
-1.39422e-05
4.61355e-06
-8.6747e-06
-4.4745e-06
-3.16407e-06
-6.88609e-06
1.4076e-05
6.10031e-06
-3.69954e-06
-1.80821e-06
1.14748e-05
-2.02593e-06
2.8192e-06
2.3814e-06
7.21075e-06
1.27861e-06
-2.96403e-06
-5.64927e-06
1.286e-05
-3.46719e-06
1.13496e-05
7.75163e-06
-4.04537e-06
2.73016e-06
4.00806e-06
-9.09899e-06
3.44972e-06
-6.36883e-06
-1.49944e-05
-1.76554e-06
1.676e-05
1.2293e-05
-8.71024e-06
-2.64447e-06
-6.07023e-06
8.71471e-06
7.96847e-06
-7.39637e-06
1.7352e-06
-7.80543e-06
1.3987e-05
-1.28517e-05
-1.20662e-06
1.55984e-05
1.30487e-05
-1.42554e-05
-6.3907e-07
1.36878e-05
-1.37628e-05
1.31237e-05
-6.61352e-06
9.14788e-06
-2.53436e-06
2.10118e-06
-1.55283e-05
-2.3187e-06
7.6572e-06
-5.33849e-06
7.19063e-06
-9.50933e-06
4.0259e-06
3.6313e-06
-7.35338e-06
5.52333e-06
1.83004e-06
5.61843e-06
-5.78118e-06
-2.1695e-06
7.69283e-06
7.47483e-06
3.03271e-06
4.66012e-06
1.51965e-05
-2.88441e-06
-1.23121e-05
1.614e-06
-2.3536e-06
1.548e-05
-1.83644e-05
-1.841e-06
8.21645e-07
-6.04143e-06
7.45295e-07
5.97534e-06
-1.05586e-06
-4.91949e-06
2.8419e-06
-2.21886e-05
2.31895e-05
8.30644e-06
-9.36229e-06
-3.19651e-05
1.21823e-05
-2.44944e-05
1.23165e-05
-1.34224e-07
3.75914e-06
-8.67863e-06
-5.44637e-06
-2.82944e-06
-5.84919e-06
4.14028e-06
1.29532e-06
-5.4356e-06
6.38539e-06
-2.24511e-06
1.0141e-05
-8.84565e-06
-6.68371e-07
-4.76723e-06
7.89092e-06
-4.56832e-06
-3.3226e-06
8.2792e-07
1.72451e-06
-8.20272e-06
3.6344e-06
-1.8789e-06
-6.32382e-06
1.16115e-05
-7.97713e-06
2.93011e-06
7.83661e-06
-6.35335e-06
-1.48326e-06
6.54368e-06
1.29294e-06
-1.79587e-06
7.12687e-06
6.77275e-06
2.99148e-06
2.92336e-06
-7.66774e-06
1.11703e-05
-3.50252e-06
9.72534e-06
2.1869e-06
-1.97056e-06
1.82905e-06
7.8963e-06
4.07195e-07
-2.54898e-06
1.43447e-05
1.45567e-05
1.47735e-05
-3.21878e-06
1.40063e-05
7.67236e-07
-8.52345e-06
8.55706e-07
-4.67951e-06
-3.84394e-06
-9.51988e-06
9.22909e-06
8.12481e-07
2.07598e-06
1.95741e-06
8.09573e-06
8.95143e-06
1.07805e-05
-3.47008e-06
-4.2248e-06
7.69487e-06
-7.18145e-06
3.71138e-06
-4.16495e-06
-3.0165e-06
-5.57297e-06
9.30431e-06
-1.12146e-05
-8.60382e-06
1.98185e-05
-1.17429e-05
1.45346e-05
1.15503e-05
-4.91563e-06
-6.63464e-06
3.68956e-06
7.86071e-06
7.40093e-06
7.63293e-06
-1.62367e-05
4.12587e-06
4.85787e-06
6.72766e-06
7.93213e-06
7.97141e-06
-1.16964e-05
7.47156e-06
8.38843e-06
-1.74462e-05
2.00185e-05
-2.57228e-06
2.37229e-06
-2.38663e-06
9.25953e-06
-6.8729e-06
4.49684e-06
-6.88347e-06
6.19224e-06
-1.69541e-06
-4.44623e-06
-2.43723e-06
-1.04925e-06
9.90183e-06
-8.85258e-06
-5.24087e-06
-6.38429e-06
1.16252e-05
-6.29012e-06
2.79359e-06
-6.21876e-06
-6.73008e-06
-3.47626e-06
-2.70434e-06
-9.32687e-06
-2.2892e-06
5.48044e-06
2.47455e-06
-1.18014e-05
-3.82796e-06
-7.46839e-06
-1.27766e-05
-1.07154e-05
-6.85413e-06
7.11643e-06
-8.2409e-06
-5.40345e-06
1.28375e-05
-7.43401e-06
-1.82959e-06
1.35848e-05
-1.17552e-05
-1.29019e-05
1.27172e-05
1.07678e-05
-1.13017e-05
3.26938e-06
7.49839e-06
-4.55899e-06
7.82837e-06
5.13913e-07
1.22868e-05
8.0123e-06
7.00145e-07
1.22902e-05
-8.17456e-06
8.8747e-06
-9.96244e-06
5.41028e-06
7.23355e-06
9e-07
-8.13355e-06
-2.17652e-06
7.2407e-06
-5.06418e-06
5.05703e-06
8.8798e-06
-3.82277e-06
-6.54319e-06
-1.29076e-06
7.83396e-06
-4.61331e-06
-1.92988e-06
-8.52348e-06
3.91017e-06
-8.07648e-06
6.1466e-06
6.69812e-06
-3.97095e-07
-6.30103e-06
5.92924e-06
7.68876e-07
-9.89106e-06
9.49396e-06
-8.00984e-06
1.70882e-06
-1.01168e-05
2.52113e-06
7.59568e-06
-4.87821e-07
5.11982e-07
-5.76685e-06
8.28798e-06
1.30716e-07
8.75951e-07
7.41203e-06
2.37964e-07
1.0595e-05
1.45999e-06
2.01518e-06
6.19125e-06
-5.74587e-06
6.03885e-06
-2.92977e-07
2.0255e-07
1.07862e-05
1.65688e-05
-2.6073e-07
6.29958e-06
8.03171e-06
-2.97063e-06
9.2702e-06
-2.48324e-06
-4.66729e-06
7.15053e-06
5.36202e-06
-2.39148e-06
-2.97054e-06
2.87878e-06
6.49223e-06
-1.64296e-06
-4.84927e-06
1.63306e-06
4.85917e-06
2.26595e-06
-3.02436e-06
6.61687e-06
-1.7577e-06
3.56628e-06
5.31654e-06
9.75172e-06
-1.20515e-06
-8.54657e-06
9.6333e-06
1.1842e-07
-1.03701e-05
9.16496e-06
7.01712e-06
-8.26909e-06
1.25198e-06
7.60057e-06
-5.83458e-07
-9.05106e-06
7.81967e-07
6.937e-06
3.51412e-06
-1.04511e-05
1.4253e-07
6.79447e-06
1.06024e-05
-1.04598e-05
-5.2078e-06
6.75911e-06
-7.28996e-06
7.5455e-06
-2.55536e-07
-5.22265e-06
-2.06731e-06
9.14052e-06
-1.59502e-06
-2.59968e-06
7.74225e-06
4.04227e-06
3.21597e-06
3.14032e-06
-1.45213e-05
7.94303e-06
6.5783e-06
-6.93389e-06
-7.58744e-06
-6.69115e-06
4.71539e-06
7.76333e-06
5.84166e-06
4.94682e-06
7.15296e-06
2.73478e-06
-5.1363e-06
-6.59942e-06
3.48018e-06
-4.13491e-06
-8.04863e-06
-3.50255e-06
-8.44847e-06
-5.88527e-06
-6.10444e-06
-7.53188e-06
6.3122e-06
-1.24166e-05
-5.065e-06
-1.01485e-05
-2.26817e-06
8.74647e-06
-1.88949e-05
-3.05402e-06
1.03042e-05
-7.25021e-06
6.99984e-06
-1.00539e-05
7.1531e-06
-1.53255e-07
-7.93482e-08
-7.06298e-06
7.14233e-06
-6.55487e-06
4.59662e-06
7.29616e-07
-7.7926e-06
-3.11737e-06
-3.92639e-06
7.04375e-06
-7.99649e-06
8.39324e-06
8.21183e-06
-1.21382e-05
6.64696e-06
-1.37289e-05
7.08189e-06
3.62489e-06
-6.81467e-06
-5.83473e-06
-3.07554e-06
-3.50947e-06
-6.81994e-06
-7.39143e-06
-6.99696e-06
-5.68915e-06
6.45546e-06
-1.34524e-05
-7.44507e-06
-6.80546e-06
-5.18837e-06
-7.39055e-06
4.27973e-06
4.41179e-06
-8.69152e-06
1.1062e-05
-6.78225e-06
8.1129e-06
-3.70111e-06
-5.95588e-06
-2.73564e-06
-2.07449e-06
-7.23661e-06
9.31109e-06
-7.08396e-06
7.38596e-06
-3.02004e-07
9.15844e-06
-7.82892e-06
-1.32952e-06
5.93874e-06
-7.0443e-06
1.10555e-06
-1.34322e-06
-8.46956e-06
9.81278e-06
4.59552e-06
-3.93945e-06
-3.10485e-06
7.2837e-06
-6.17814e-06
-3.22975e-06
4.66102e-06
7.90711e-06
1.1501e-05
-1.36082e-05
2.1072e-06
-7.07101e-06
1.85721e-05
-6.80466e-06
-6.80358e-06
-7.26856e-06
6.09114e-06
-7.48555e-06
5.00389e-06
-3.39144e-06
2.44233e-06
5.01968e-06
6.50943e-06
-9.46094e-06
1.00422e-05
-5.8123e-07
-7.13944e-06
-2.32151e-06
-2.42304e-07
2.55963e-07
-1.09368e-05
8.61529e-06
-8.74866e-07
7.27087e-06
2.36647e-06
-2.16251e-06
-2.41456e-06
-7.845e-06
1.02596e-05
7.88903e-06
-6.33005e-06
-1.51496e-06
-3.32284e-07
9.26036e-06
9.99199e-07
-2.77513e-06
9.94581e-06
1.05124e-05
3.30989e-06
3.06963e-06
-7.0055e-06
-1.24137e-06
8.24686e-06
-4.8953e-07
-6.51597e-06
9.87731e-06
-1.03668e-05
3.77297e-06
-1.02889e-05
2.71158e-06
-1.0016e-05
7.30445e-06
-4.22974e-06
6.94132e-06
5.43158e-06
-9.66132e-06
-1.9233e-06
8.86463e-06
-1.13367e-05
1.64622e-06
9.69044e-06
-6.48093e-07
-1.42903e-06
-7.5878e-06
9.23402e-06
-2.04365e-06
-1.34532e-06
1.05793e-05
-8.99459e-06
2.4432e-06
6.55138e-06
-4.17942e-07
-8.57664e-06
-8.3024e-06
8.76041e-06
-9.06827e-06
4.9163e-07
-2.09418e-06
6.40204e-06
7.33962e-06
3.54128e-06
3.56442e-06
5.97465e-06
2.51346e-06
-2.67053e-07
1.0712e-05
-1.0445e-05
7.79003e-06
2.32781e-06
-1.01178e-05
7.52298e-06
-6.74282e-06
3.43798e-06
-6.89946e-06
2.57532e-06
-1.3453e-05
-3.22345e-06
-3.15622e-06
-5.78443e-06
-6.88215e-06
-6.98797e-06
3.99554e-06
-6.97676e-06
-8.22518e-06
-2.01473e-06
-3.85377e-06
-5.77217e-06
-1.43093e-06
1.65989e-06
-7.80274e-06
6.14285e-06
-6.9808e-06
7.12702e-06
-1.46222e-07
-5.3209e-06
8.76351e-06
-4.648e-06
-4.11551e-06
2.23714e-06
6.52637e-06
-1.05163e-05
5.86835e-06
-6.26716e-06
5.65334e-06
6.13826e-07
1.94479e-06
-8.21195e-06
-3.09558e-06
8.74892e-06
7.42434e-06
-6.81052e-06
-1.00259e-05
9.22218e-06
8.0374e-07
-8.39922e-06
-1.6267e-06
-4.27617e-07
-3.71025e-07
4.57049e-06
-2.81127e-06
7.96102e-06
-1.14806e-06
1.03796e-05
3.55796e-06
3.00456e-06
7.42958e-06
6.9911e-06
7.90066e-06
1.1594e-05
-1.26165e-06
-1.03324e-05
7.27198e-06
-3.07023e-06
-3.25827e-06
-3.69395e-06
-2.82144e-06
-1.12345e-05
9.97283e-06
-7.1304e-06
-3.75242e-06
-2.617e-06
-1.04544e-05
1.77927e-06
8.67515e-06
-1.92094e-06
2.52851e-06
-7.48471e-06
9.26398e-06
-1.29275e-06
-3.25517e-07
9.58949e-06
3.29031e-06
-7.9085e-06
-7.66894e-06
-3.64789e-06
-3.3218e-06
4.69841e-06
-3.10614e-06
-4.31345e-06
-7.00169e-06
-1.39111e-05
2.67121e-06
-8.75612e-06
7.60497e-06
-6.21101e-06
-1.26439e-05
3.88777e-06
-3.0715e-06
-9.57239e-06
-8.88082e-07
1.30198e-05
-1.21317e-05
-1.11655e-05
-1.16875e-05
-4.19288e-06
8.70635e-06
-5.78873e-06
-3.11406e-06
7.82912e-06
7.03027e-06
3.20712e-06
3.23216e-06
-4.98095e-06
3.32994e-06
4.24107e-06
6.94557e-06