/*--------------------------------*- C++ -*----------------------------------*\
  =========                 |
  \\      /  F ield         | OpenFOAM: The Open Source CFD Toolbox
   \\    /   O peration     | Website:  https://openfoam.org
    \\  /    A nd           | Version:  6
     \\/     M anipulation  |
\*---------------------------------------------------------------------------*/
FoamFile
{
    version     2.0;
    format      ascii;
    class       volScalarField;
    location    "0.4";
    object      p;
}
// * * * * * * * * * * * * * * * * * * * * * * * * * * * * * * * * * * * * * //

dimensions      [0 2 -2 0 0 0 0];

internalField   nonuniform List<scalar> 
127306
(
0.0235447
0.0231386
0.0238819
0.023827
0.0454627
0.045583
0.0458378
0.0302239
0.0301426
0.0307724
0.0304137
0.0309602
0.063025
0.0629894
0.0630381
0.0630873
0.0630937
0.0234651
0.0231976
0.0233948
0.0235763
0.0317957
0.0312761
0.0310406
0.0634643
0.0631549
0.0634152
0.0635726
0.032397
0.063189
0.0631716
0.0632587
0.0632174
0.0327973
0.0327384
0.0326413
0.0632566
0.0632883
0.0439562
0.0331986
0.0330936
0.0328882
0.0628539
0.0629646
0.0629656
0.0629771
0.0227104
0.0229537
0.0230837
0.0338712
0.0336116
0.0181276
0.0189966
0.0184507
0.0188624
0.0183629
0.0223508
0.0225277
0.0225185
0.0341825
0.0342308
0.0339585
0.0347398
0.0346059
0.0342945
0.000130481
0.000170357
-0.000174027
-0.000155636
-3.64357e-05
0.0354993
0.0350492
0.0347609
8.11991e-05
-2.87612e-05
1.25945e-05
-4.20885e-05
0.0442176
0.0442796
0.0443221
0.0356736
0.0357111
0.0356579
-3.04871e-05
-0.000101464
-7.75367e-05
0.000147691
0.0361478
0.0359423
0.0357118
8.11035e-05
9.58129e-05
0.0366654
0.0366294
0.0361989
0.000294213
0.000194996
0.00022723
-7.25653e-05
0.0219958
0.0220111
0.0221817
0.0375653
0.0365936
0.0363665
0.0252789
0.0257262
0.0259802
0.0257821
0.0370597
0.0370778
0.0376024
0.0187403
0.0180679
0.0378411
0.0379469
0.038037
0.0251864
0.0253726
0.0313054
0.0306821
0.0368946
0.0368076
0.0368548
0.0372261
0.0538972
0.0537167
0.0537004
0.0534702
0.044563
0.0442116
0.0444402
0.0537916
0.0545262
0.0538942
0.0409507
0.0409859
0.0416588
0.0412674
0.0366901
0.0367301
0.0368329
0.0368202
0.0328685
0.0327064
0.0330477
0.0329786
0.0365486
0.0364585
0.0532948
0.0534488
0.0295327
0.0296741
0.0295548
0.0298978
0.0299866
0.0297388
0.0302803
0.0361958
0.0549641
0.0293998
0.0350478
0.0350072
0.0337262
0.0529553
0.0535178
0.0333672
0.0550574
0.0265928
0.0264391
0.0329519
0.000289161
0.000322555
0.000309031
-1.12079e-05
0.0325003
9.79779e-05
0.000113096
0.0320473
0.0560015
-0.000127411
1.64228e-05
-0.000145681
-0.000157723
0.031666
0.0522278
0.0523708
0.05224
-1.59894e-05
4.85959e-05
0.0628397
0.0627706
0.0627788
0.0628322
0.0214845
0.0215654
0.0219247
0.0626937
0.0628404
0.0561946
0.0563361
0.0559225
0.0631372
0.0633496
0.0634933
0.0629419
0.0310158
0.0293048
0.030471
0.0521458
0.0518918
0.0519791
0.0631472
0.0630867
0.0291743
0.0294894
0.0294524
0.0286307
0.0372776
0.0375537
0.0284046
0.0560557
0.0568053
0.0560511
0.0372185
0.037375
0.0372091
0.027613
0.0516972
0.05132
0.0374904
0.0374636
0.0373997
0.0272539
0.0378398
0.026333
0.0259256
0.0515418
0.0255803
0.0251376
0.0573216
0.0246641
0.0507607
0.0235499
0.0573863
0.0220995
0.021917
0.0504906
0.0575871
0.0499814
0.0579388
0.0494851
0.0499348
0.0214748
0.0584496
0.0209969
0.0626407
0.0630103
0.0629183
0.062709
0.0627363
0.0492315
0.0490185
0.0628471
0.0629193
0.0629459
0.0630313
0.0383972
0.0377574
0.0592441
0.0590461
0.0587099
0.06291
0.0387988
0.0387692
0.0387023
0.0628509
0.0399559
0.0405659
0.0487131
0.0629052
0.0401941
0.0629104
0.0204606
0.0208039
0.0208613
0.0600549
0.0593235
0.0592675
0.0630521
0.0630494
0.0628802
0.0409765
0.0629424
0.0415271
0.0412069
0.0628957
0.0417761
0.0422275
0.0423894
0.0484271
0.0629429
0.0604332
0.0628867
0.0213026
0.0629925
0.0210637
0.062953
0.0630877
0.0630995
0.0205106
0.0605574
0.0604078
0.062982
0.047715
0.048085
0.0628715
0.0201864
0.020343
0.0204044
0.0629345
0.0446122
0.0442928
0.0444312
0.0201353
0.0201485
0.0200944
0.0629088
0.0630155
0.0632496
0.0632681
0.0635572
0.063523
0.0634396
0.0425093
0.0422549
0.0422978
0.0606345
0.0607428
0.0606774
0.0636986
0.0471798
0.047076
0.0631856
0.0634897
0.0635257
0.0634426
0.0634364
0.0631774
0.0633897
0.0632191
0.0634824
0.0197371
0.0633009
0.0632107
0.0631272
0.0630948
0.0627566
0.0629898
0.0630018
0.062983
0.0630437
0.0631975
0.0628109
0.063009
0.0629643
0.019219
0.0195044
0.0200072
0.0612674
0.0616737
0.0616874
0.0629651
0.0468171
0.0471203
0.0427783
0.0437348
0.0629536
0.0627761
0.0630918
0.0194267
0.0628491
0.0629468
0.0450295
0.0448674
0.0633724
0.0633486
0.0192705
0.0194227
0.0631031
0.0618789
0.0632075
0.0632461
0.0633152
0.0628111
0.0629104
0.0437412
0.0434357
0.0457743
0.0458033
0.0456549
0.062933
0.0194056
0.0199762
0.0463674
0.0463153
0.0464089
0.0186665
0.0442111
0.0189606
0.062117
0.0621058
0.03651
0.0452918
0.0093722
0.00927962
0.00918429
0.00943647
0.00891916
0.00876638
0.00866775
0.0100177
0.0104573
0.0624635
0.00879252
0.0105379
0.00859341
0.00773231
0.00830244
0.0097498
0.00953353
0.00919536
0.00943982
0.00915615
0.00887512
0.00890958
0.0110444
0.00762406
0.0074655
0.00777834
0.0102517
0.010196
0.00859229
0.0113733
0.00712441
0.00706602
0.00734311
0.010316
0.00826455
0.0357487
0.0116415
0.00683403
0.0108433
0.00766491
0.0121011
0.00701052
0.00633247
0.0112976
0.0128684
0.0125322
0.00683786
0.00536484
0.0114821
0.0134123
0.0134242
0.0132351
0.012017
0.032695
0.00527483
0.0138637
0.0138451
0.0137683
0.00598834
0.00661156
0.00663819
0.0311051
0.031212
0.0126095
0.0303447
0.0304991
0.0302768
0.0050026
0.0139704
0.0140973
0.014149
0.0059751
0.00578528
0.00594185
0.0126135
0.00433933
0.0357496
0.0145254
0.0148619
0.0148713
0.00539881
0.00392749
0.0137736
0.0341568
0.0342285
0.0337111
0.0345
0.0150378
0.0152356
0.0151325
0.00511454
0.0337507
0.00298937
0.0036004
0.00385821
0.0139239
0.0138716
0.0363586
0.0155156
0.0157059
0.00419798
0.0328657
0.00318573
0.00325101
0.00301765
0.0140683
0.0144276
0.0143676
0.0160455
0.0157674
0.00372768
0.00400915
0.00411734
0.0146476
0.0150068
0.014707
0.00253921
0.00298663
0.00348518
0.0157693
0.0159826
0.0161762
0.0162854
0.0165249
0.0166114
0.00343204
0.0282765
0.0282675
0.00302331
0.00229033
0.00283374
0.00183068
0.00222878
0.0020087
0.0158931
0.0163127
0.0161234
0.000118184
-3.54781e-05
-8.59945e-05
-6.06262e-05
0.000141977
0.000183771
0.00015633
8.91917e-05
0.0167383
0.0169116
0.016893
0.00201646
0.00202946
0.00215031
0.00153343
0.0021503
0.0165727
0.0168184
0.0168057
0.000166309
0.000125136
-0.000289377
-6.30089e-06
2.68986e-05
5.61031e-05
0.00010814
-1.34312e-05
6.06388e-05
0.000120936
4.7602e-05
0.000158688
0.00151944
0.00140346
0.00181559
0.0295778
0.0299615
2.61177e-05
0.0294722
0.0291279
0.0294332
0.0169236
0.0170219
0.0168719
5.26059e-05
0.0286947
0.028208
0.0281845
0.0283708
0.0279743
0.0282253
0.028124
0.0282913
0.0169538
0.0172022
0.017182
-7.61963e-05
0.0351526
0.0349653
0.03461
0.0348277
0.0345341
0.034574
0.0347092
0.000972084
0.000139658
0.0339079
0.0341233
0.0342512
0.000103447
0.00016024
-0.000166227
0.033897
0.0340818
0.0338859
1.06558e-05
-8.03195e-05
9.70512e-06
8.51213e-05
0.000165484
0.0334627
0.0330585
0.0331905
-1.15805e-05
-0.000191053
0.018066
0.0182264
0.018584
0.0276887
0.0278446
0.0178556
0.0177813
0.0176872
0.0329242
0.0327547
0.0329986
0.017235
0.0318594
0.0320308
0.0323195
0.0319339
0.0317724
0.0319761
0.018093
0.0178365
0.0174484
0.000890963
0.000902064
0.030998
0.0311736
0.031229
0.000374209
0.000608938
0.0307719
0.0304498
0.0307015
0.0301512
-5.37422e-05
-8.46454e-05
0.0356307
0.035349
0.0354104
5.09333e-05
-4.27994e-06
0.0272631
0.0273277
0.0271701
0.0363093
-7.55688e-05
0.0363257
0.0360491
0.0359254
0.0183408
0.000490104
0.000848231
0.0268908
0.026832
0.0361053
0.0360664
0.0364192
9.67475e-05
0.0363992
0.0365962
0.0363593
0.0373451
0.0372236
0.0542598
0.0538722
0.0538382
0.0536809
0.0373977
0.0377448
0.0542284
0.0548075
0.0541364
-7.27654e-05
0.0535335
0.0532806
0.0381103
0.0552855
0.0530941
0.055366
0.0526004
0.0299105
0.0298345
0.0557081
0.0521985
0.0561174
0.051891
0.0237469
0.0234774
0.0561918
0.0564099
0.0563971
0.0239423
0.0240117
0.0240165
0.0245683
0.0244858
0.0242559
0.0249739
0.0248499
0.0245664
0.0511644
0.0516704
0.0250872
0.0252798
0.025626
0.0255826
0.0568138
0.0570232
0.0569133
0.0504235
0.0507402
0.0506627
0.0302124
0.0302152
0.0299792
0.030334
0.0304083
0.0305942
0.0307784
0.0307006
0.0575682
0.0570666
0.057158
0.050283
0.0502608
0.0503768
0.0311428
0.0312305
0.0309726
0.0311682
0.0312612
0.0575542
0.0574479
0.0315276
0.031415
0.0496941
0.0498376
0.0498578
0.0318219
0.0319551
0.0317293
0.0322183
0.0321719
0.0319768
0.0323188
0.0324147
0.0324725
0.0580784
0.0584255
0.03249
0.0495658
0.049566
0.0493774
0.0331235
0.0333672
0.0334192
0.0335466
0.0584589
0.0338269
0.0336897
0.033482
0.0492543
0.0494015
0.0491146
0.0341032
0.0341284
0.0343024
0.0344718
0.0344216
0.0345895
0.0347133
0.0346511
0.0586635
0.0586356
0.0350311
0.0351374
0.0349585
0.048206
0.0486103
0.0354253
0.0352831
0.035077
0.0355823
0.0357249
0.0356649
0.0359756
0.0361025
0.0359371
0.0590586
0.0593809
0.0593422
0.0594103
0.0361052
0.0364681
0.0364149
0.048341
0.0369147
0.0371373
0.0374004
0.037302
0.0597882
0.0597885
0.0597285
0.0375922
0.0377705
0.0377912
0.0474174
0.0479027
0.0380913
0.0381375
0.03791
0.038288
0.0385458
0.0384471
0.0386858
0.0385508
0.0385741
0.0389716
0.0393029
0.0605171
0.0602672
0.06016
0.0394101
0.0393719
0.0396348
0.0400396
0.0403625
0.0401796
0.040432
0.0406812
0.0405373
0.0466636
0.0467407
0.0465846
0.0408927
0.041851
0.0416525
0.0419904
0.0418937
0.0419301
0.0607388
0.0606485
0.0607261
0.04243
0.0427805
0.0429552
0.0432414
0.0436181
0.0465539
0.0460239
0.0466308
0.0613904
0.0609511
0.0609639
0.044131
0.0447814
0.0452084
0.0455428
0.0456461
0.062015
0.0617239
0.0621115
0.0618405
-0.000274649
-9.41613e-05
-0.000301015
1.8073e-05
0.000183981
-1.96822e-05
-0.000146014
-8.85378e-05
3.5185e-05
-0.000108969
0.000140381
-9.55337e-05
0.000126264
0.000196113
-1.2118e-05
-3.93685e-05
-0.000153443
6.14543e-05
-0.000173065
0.000121932
-6.52522e-05
-0.000103808
0.000228655
0.000174493
-7.02251e-06
-1.27727e-05
0.0343314
0.0342174
0.0337331
0.0344521
0.0338819
0.0338698
0.0343427
0.0341783
0.0339143
0.0335109
0.0336979
0.0339793
0.0338097
0.0339516
0.0340453
0.0342536
0.0341818
0.0346657
0.0340403
0.0338732
0.0340218
0.0340021
0.0338861
0.0339922
0.0339483
0.0337704
0.0341361
0.0340408
0.0339588
0.0333902
0.0336325
0.0335084
0.0331333
0.0342093
0.0339953
0.0343199
0.0339969
0.0339312
0.0339622
0.034075
0.0338581
0.0339639
0.0338951
0.0344781
0.034335
0.0347106
0.0344418
0.0343393
0.0343129
0.0347007
0.0630961
0.0632853
0.0631487
0.0631045
0.0629918
0.062614
0.0630872
0.0629992
0.0631139
0.0631213
0.0626611
0.0630945
0.0633392
0.0332227
0.0332897
0.0332781
0.0331842
0.0333585
0.0330877
0.0329972
0.0328268
0.0328762
0.0328601
0.0325818
0.0328353
0.0329554
0.0186379
0.018692
0.0185638
0.018773
0.0188255
0.0189443
0.0186903
0.0186115
0.0347199
0.0346265
0.0348171
0.0345876
0.0342569
0.0342418
0.0342156
0.0343547
0.0341593
0.034437
0.0342343
0.0344921
0.0345583
0.03459
0.0349848
0.0241332
0.0238671
0.0239421
0.0240223
0.0190659
0.0186193
0.0191761
0.0191124
0.0189718
0.0185678
0.0376838
0.0377339
0.0631114
0.0628915
0.0363368
0.0370589
0.0366411
0.0370056
0.0370299
0.0369914
0.0367558
0.0367675
0.0371386
0.0374974
0.0373331
0.0372692
0.0370926
0.0368031
0.0365295
0.036381
0.0364054
0.0363361
0.0366464
0.0362614
0.0365444
0.0364852
0.0363562
0.0364935
0.0364723
0.036797
0.0369011
0.036772
0.0364232
0.0360973
0.0362241
0.0362558
0.0362953
0.0595376
0.0595963
0.0594628
0.0598569
0.0028018
0.0029032
0.00256945
1.30398e-06
-5.55656e-05
6.24074e-05
0.000303614
7.29056e-05
-4.51994e-05
0.000199673
0.000117824
0.0361723
0.0362473
0.0362325
0.0361208
0.0359773
0.0360047
0.0362452
0.0361134
0.0362544
0.0362076
0.0360057
0.0361177
0.00116163
0.000820058
0.00102769
0.00112667
0.0619726
0.0623675
0.0623166
0.0622028
0.0246962
0.0246816
0.0244872
0.0244527
0.0235058
0.0236263
0.0233776
0.0235222
0.0232536
0.0333678
0.0330797
0.033075
0.0330487
0.0326317
0.0332679
0.0328919
0.0328395
0.0288809
0.0288629
0.0289465
0.0290802
0.0288938
0.0287984
0.0290415
0.0287801
0.0314367
0.03169
0.0313022
0.0350267
0.0350476
0.0348798
0.0347001
0.0348475
0.0348527
0.0348498
0.0265441
0.0264897
0.0263697
0.0628759
0.0627603
0.0621134
0.0626962
0.0629828
0.0628091
0.0627859
0.0628315
-0.000417926
-8.2554e-05
-0.000269877
-0.0002186
-9.70614e-05
6.40031e-06
-0.000260287
0.000138967
0.000145789
0.0370877
0.0369731
0.0370949
0.0191298
0.0190408
0.0193095
0.034459
0.0347342
0.0342922
0.000305209
1.80859e-05
-3.32212e-05
-2.47611e-05
-6.08563e-06
0.000102924
3.01035e-05
5.00471e-05
-8.45365e-05
0.020692
0.0208857
0.0204005
0.0207703
0.0324371
0.0324006
0.0325689
0.0324611
0.0307215
0.0303449
0.0304923
0.0310636
0.030471
0.0633013
0.0624849
0.0620679
0.0631023
0.0633035
0.0632479
0.0632092
0.0633057
0.0634406
0.036905
0.0370335
0.0370543
0.0368985
0.0369872
0.0187006
0.018363
0.0184088
0.0183901
0.0186007
0.0179481
0.0629025
0.0627459
0.0387318
0.0386519
0.0386532
0.0385233
0.0263097
0.0263029
0.026167
0.0264097
0.0588616
0.0590119
0.0589727
0.0589865
0.058929
0.0228412
0.0231363
0.0232298
0.0234249
0.0630102
0.0628032
0.0628812
0.0269618
0.0270863
0.0270027
-0.00031132
-0.000712763
-0.000149663
-0.000713482
-6.78145e-05
-2.18025e-05
-8.26986e-05
-0.000300931
0.0423734
0.0424817
0.042372
0.0440052
0.0439035
0.0441081
0.0309265
0.0308328
0.0309376
0.0308344
0.034275
0.034276
0.0345669
0.0635773
0.0637381
0.0632247
0.0634301
0.0631341
0.000157561
-6.50829e-05
-0.00015819
0.000207531
-5.12168e-05
2.15143e-05
0.020347
0.0201639
0.0202291
0.0200945
0.0202463
8.14344e-05
-8.83119e-05
-5.59047e-05
-0.000123812
-0.000168565
-0.000235129
-0.000257243
0.000102458
0.000320465
0.000160073
0.000232009
-0.000122325
-0.000203162
-0.00011953
-0.000264949
0.0629446
0.0628847
0.062938
0.0628976
0.0629202
0.0627573
0.0630123
0.062299
0.0620454
0.0617541
0.0621629
0.0629637
0.0628784
0.062824
0.0630334
0.0623395
0.0630469
0.0629283
0.0628191
0.0629712
0.0629887
0.0629338
0.0630889
0.06301
0.0631704
0.0629781
0.0623526
0.0622867
0.0623011
0.062981
0.0620231
0.000383056
-9.04732e-06
-5.4209e-05
-0.000218735
-9.84527e-06
-0.000100938
-9.90662e-05
-0.00014482
-6.27088e-05
-9.31676e-05
0.000241137
0.000251339
0.000297776
0.000382064
-0.000206072
-0.000124317
0.0225797
0.0224085
0.0440401
0.0436547
0.0438644
0.0440576
0.0440877
0.0439852
0.0440558
0.043618
0.0437954
0.0436955
0.0300298
0.0299944
0.030281
0.0293371
0.0289797
0.0293167
0.0292657
0.0196337
0.0196402
0.0195061
0.00325866
0.00297108
0.00278304
0.002642
0.00281184
-2.67117e-05
1.29544e-05
0.0629672
0.0628974
0.0628568
0.0387196
0.0385027
0.0386134
0.0385592
0.0383377
0.0188207
0.0186573
0.0183828
0.0453953
0.0455417
0.0454203
0.0183396
0.0184753
0.0181734
0.0184878
0.0186483
0.0185429
0.0457372
0.0457891
0.0456167
0.0456003
0.0456658
0.0457546
0.022656
0.0225451
0.0226391
0.0630587
0.0630017
0.0630651
0.062993
0.0184351
0.0184432
0.0182657
0.0183989
0.0185369
0.018252
0.0183479
0.0446881
0.0440472
0.0447253
0.0445134
0.0444671
0.0444242
0.0443753
0.0444515
0.0441575
0.044235
0.0441163
0.0453254
0.0456258
0.0182153
0.0184277
0.0183068
1.73165e-05
-0.000105748
0.0289899
0.0290623
0.0293078
0.0294821
0.0291058
0.0264879
0.0267698
0.0265823
0.0268555
0.0266935
0.031802
0.0321687
0.0316911
0.0175186
0.0177057
0.0011239
0.00105081
0.000589469
0.000967872
0.0460214
0.0459972
0.0460773
0.0177417
0.0180248
0.01787
0.0263619
0.0261808
0.0262596
0.0413702
0.0414666
0.0413363
0.0462321
0.0462454
0.0461482
0.0339634
0.0340915
0.0339364
0.063017
0.0629824
0.0629247
0.0228909
0.0228113
0.0229254
0.0227423
0.0379139
0.0373765
0.0367901
0.0376348
0.0373672
0.0372741
0.0375361
0.0350216
0.0346393
0.0343446
0.0348325
0.0343727
0.0343743
0.0343026
0.0344244
0.0345132
0.0351882
0.0351082
0.0351822
0.0348998
0.0349285
0.0349581
0.0346089
0.0347054
0.0346635
0.0619143
0.0615243
0.0619897
0.0383287
0.0381893
0.0381035
0.0183981
0.0190645
0.0191833
0.0186608
0.0185154
0.0179832
0.0185434
0.0181875
0.0187469
0.0180832
0.0183797
0.0184885
0.0183774
0.0185034
0.0182867
0.0629723
0.062979
0.0629329
0.063096
0.0631439
0.062914
0.028559
0.0287
0.0288434
0.0287106
0.0287189
-0.000123247
-0.000114481
-8.23958e-05
-0.000138298
0.0211926
0.0212021
0.0211993
0.0429204
0.0431106
0.0429628
0.0430184
0.0281783
0.0278526
0.0279512
0.0281625
0.032726
0.0326086
0.0325018
0.0413782
0.0414138
0.0412102
0.0413442
0.0310144
0.0308636
0.0304637
0.0305771
5.44671e-07
2.77416e-05
0.0400988
0.0399156
0.0400218
0.029519
0.0295199
0.0294355
0.00375955
0.00383444
0.00386083
0.0529875
0.0528488
0.0531439
0.0628594
0.0629788
0.0631096
0.0631344
0.0242056
0.0243107
0.0238363
0.0234571
0.0233408
0.0237355
0.0236527
0.0235674
0.0418038
0.0419824
0.041607
0.0246128
0.0246525
0.0246803
0.0245787
0.0247474
0.0548936
0.0549543
0.0548727
0.0629943
0.0629365
0.062978
0.02966
0.0294378
0.0295633
0.0293781
0.0294555
0.0525544
0.0526696
0.0529235
0.00855344
0.00859786
0.0085227
0.0452948
0.0455557
0.0453782
0.010236
0.0103311
0.0104001
0.0624148
0.0629375
0.0629996
0.0629828
0.0619914
0.0626434
0.0632353
0.00789811
0.00811687
0.00771644
0.0627259
0.0625989
0.0628059
0.0629273
0.0628036
0.062867
0.0547884
0.0548701
0.0547823
0.00866272
0.00851194
0.00855423
0.0454716
0.0453542
0.015961
0.0157126
0.0160313
0.0162641
0.0434781
0.0436275
0.0436799
0.043692
0.043757
0.0438295
0.0438609
0.0437824
0.0477074
0.0470167
0.0475448
0.0253745
0.0255122
0.0251776
0.0254258
0.0401347
0.0397733
0.0629405
0.062776
0.0379853
0.037863
0.0380282
0.038117
0.0352533
0.0352708
0.0352354
0.0350114
0.0346615
0.0353016
0.0352518
0.0348118
0.0349582
0.0347374
0.0353797
0.0353624
0.0353354
0.0354058
-0.000131857
-0.000345378
-5.88262e-05
-6.52548e-05
8.39178e-06
-0.000115639
-0.00033719
0.0271194
0.0271934
0.0272248
0.0271811
0.0270819
0.0319903
0.0319646
0.0322235
0.0318609
0.0377713
0.0376994
0.0376736
0.037794
0.03771
0.0427105
0.0426177
0.00331443
0.00334353
0.00328342
0.0157419
0.0159822
0.0163109
0.0595315
0.0595177
0.0597
0.042806
0.0429281
0.0427406
0.0430485
0.0429284
0.0428669
0.0308342
0.0309918
0.0307645
0.0307292
0.0305753
0.0290017
0.0290124
0.0290579
0.0291184
0.0291199
0.0289274
0.0216768
0.0220599
0.0220052
0.0455708
0.0456051
0.0456216
0.045181
0.0450905
0.0453817
0.0453089
0.0449651
0.0452364
0.0451761
0.045242
0.0452685
0.0453029
0.0361782
0.0362745
0.0361225
0.0359173
0.0191732
0.0200119
0.0197714
0.000585963
0.000839294
0.000630129
9.90557e-05
0.000812057
0.000643982
3.21748e-05
0.000161616
0.000677329
0.042941
0.0428253
0.0428141
0.06157
0.0617347
0.0620496
0.0616829
0.0618402
0.0626463
0.0632989
0.0627743
0.0615124
-0.000195254
-0.000509729
-0.000276099
-7.59922e-05
-5.09042e-05
-0.000116903
-4.6784e-05
0.043142
0.0425402
0.0423027
0.042931
0.0429374
0.0422992
0.0314203
0.0316072
0.0315167
0.0358781
0.035994
0.0360299
0.0210545
0.0212265
0.0211601
0.0274013
0.0274234
0.0273438
0.0274192
0.0276133
0.0274157
0.0178473
0.0179289
0.0177011
0.0613295
0.0612332
0.0614336
0.0413087
0.0415452
0.0410362
0.0411328
0.0198234
0.0198734
0.0197959
-0.000294165
1.69505e-05
-0.000123
0.037912
0.0378529
0.0604667
0.0603895
0.0602697
0.0604327
0.0285211
0.0286195
0.0284631
0.0345306
0.0346902
0.0348408
0.0348536
0.0351237
0.0224211
0.0229446
0.0230766
0.0228498
0.0222832
0.0253126
0.0255321
0.0253602
0.037159
0.0371494
0.0370421
0.0370463
0.00187218
0.00148493
0.00188007
0.0259454
0.0259509
0.0259755
0.0295919
0.029564
0.0295237
0.0614647
0.0612837
0.0613349
0.008641
0.00862695
0.00861493
0.00850321
0.00851313
0.0270723
0.0264097
0.0270691
0.00183831
0.00136392
0.00180781
0.0543108
0.0543242
0.054265
0.0542456
0.0610021
0.0608085
0.0605395
0.060695
0.0374803
0.0374361
0.0374368
0.0377586
0.00962116
0.00979091
0.00951304
0.00967747
0.0389604
0.0391837
0.0389454
-0.000136013
9.58561e-05
2.09977e-05
1.26665e-06
0.00994009
0.00954683
0.00971466
0.0537591
0.0542399
0.0542361
0.0540661
0.054085
0.0540926
0.0536547
0.0539016
0.0535626
0.0539111
0.0335786
0.0334421
0.0338005
0.0536913
0.0538969
0.0538247
0.0535284
0.00921418
0.00949179
0.00949057
0.00952256
0.00913559
0.00938099
0.00884896
0.0221149
0.0219734
0.0222486
0.0231666
0.0229042
0.0229491
0.0541108
0.0542381
0.0537042
0.0539065
0.0540737
0.0543817
0.0541603
0.0540043
0.0263139
0.0262823
0.0264803
0.00966989
0.00984919
0.00976785
0.00981795
0.00959035
0.00935192
0.00983748
0.00938706
0.00959311
0.00965678
0.0302266
0.029959
0.0301355
0.0336073
0.0337459
0.0338199
0.033765
0.0017769
0.00211648
0.00210649
0.00236917
0.0227335
0.0226186
0.0225548
0.0230759
0.0293729
0.0293112
0.028887
0.0289335
0.0288332
0.0291482
0.0288239
0.0348888
0.0350856
0.034807
0.0349441
0.0348099
0.027265
0.0270661
0.0271952
0.0270491
0.0388836
0.0388024
0.0388874
0.027345
0.0275822
0.0273096
0.0274787
0.0273761
0.0597553
0.0599827
0.0596095
0.059764
0.046953
0.0473076
0.0474274
0.0473537
0.0473167
0.0315116
0.0313763
0.0313873
0.0598454
0.0597312
0.059422
0.0598079
-0.000125184
-0.000142982
-0.00011458
5.36135e-05
-0.000145586
-8.82919e-05
0.000330195
0.000132447
0.000524017
0.0206488
0.0208837
0.0207415
0.00234694
0.002564
0.002052
0.0269254
0.0268669
0.0269477
0.0211194
0.0213611
0.0212245
0.0211518
0.0213916
0.0477216
0.0478603
0.0475238
-0.000341083
-0.000346311
-0.000164382
0.00463695
0.00449532
0.00448915
0.0041639
0.0263414
0.0263292
0.0259954
0.0263522
0.0262838
0.0185306
0.0182863
0.0186196
0.0191352
0.0188305
0.0184114
0.0192838
0.0189594
0.0182585
0.0181747
0.0184187
0.0180856
0.0326736
0.0326626
0.0327163
0.0326915
0.0323233
0.032508
0.0330647
0.0330389
0.0326997
0.0326958
0.0326637
0.0327057
0.0323206
0.032358
0.0319175
0.032571
0.0326473
0.0326141
0.0324305
0.061648
0.061846
0.0612812
0.00423999
0.00403122
0.0039616
0.00417279
0.00423438
0.0427444
0.0427607
0.0428251
0.0265928
0.0269686
0.0267403
0.058928
0.0588343
0.0589099
0.0587687
0.0468095
0.0467626
0.0464049
0.0614881
0.0613868
0.0613128
0.0614841
0.00128938
0.00123991
0.00126843
0.0461635
0.0461973
0.0463357
0.0166012
0.0162836
0.0159788
0.0162968
0.0158961
0.0172118
0.017122
0.0171887
0.0627667
0.0628754
0.0168363
0.0169413
0.046202
0.0463515
0.0460272
0.0596975
0.0594886
0.0594846
0.059629
0.0594211
0.00142682
0.000255172
0.00137712
0.000791666
0.0321828
0.0321539
0.0321437
0.03215
0.0324064
0.0322426
0.0321286
0.0172029
0.0171812
0.0171398
0.017158
0.0169453
0.017206
0.0456794
0.045905
0.0457798
0.0457607
0.0455929
0.0456514
0.0173343
0.0173802
0.0172813
0.0615186
0.0616124
0.0615662
0.0615617
0.0612805
0.0613479
3.7869e-05
0.000662664
1.58362e-05
0.000469469
0.000570604
0.039351
0.0394235
0.0394166
0.0396721
0.0395417
0.0463349
0.0466014
0.046576
0.0464008
0.0466359
0.0463017
0.0271627
0.0270605
0.0268349
0.027244
0.0273548
0.0270712
0.0166751
0.0169805
0.017282
0.0169758
0.0162676
0.0462375
0.0461885
0.0460783
0.0464951
0.0169873
0.017262
0.017346
0.0170003
0.0166812
0.017661
0.0172513
0.0172176
0.00101375
0.000880034
0.00101972
0.00120223
0.000893063
0.000887167
0.00116858
0.000990531
0.00124134
0.00103926
0.00142013
0.0621359
0.0630855
0.0620176
0.0628284
0.0621016
0.0421455
0.042412
0.0423836
0.0618357
0.061703
0.0617685
0.0615343
0.06158
0.0609057
0.0599976
0.0598928
0.059679
0.0158511
0.0160302
0.016232
0.0473377
0.0475649
0.0474847
0.0474698
0.0157812
0.016056
0.0160599
0.000336487
0.000495976
7.12781e-05
0.000467116
0.000220204
0.042766
0.0427536
0.04276
0.0426745
0.0601936
0.0600853
0.0598669
0.026094
0.0261156
0.00431893
0.00417369
0.00427423
0.0313721
0.0311488
0.0315127
0.031534
0.0315464
0.0315316
0.0316898
0.0589935
0.058815
0.0592638
0.0589621
0.0588557
0.06286
0.0628849
0.0629224
0.0199062
0.0201652
0.0201319
0.0170772
0.0169878
0.0170331
0.0292168
0.0292095
0.029253
0.0293002
0.0292329
0.0290774
0.0291154
0.0290008
0.0466121
0.0461518
0.0464616
0.00137002
0.00182305
0.00138587
0.0604412
0.0599943
0.0599651
0.0603627
0.0463285
0.0461715
0.0397312
0.0397799
0.039467
0.0395711
0.0612006
0.0613425
0.0614076
0.0283469
0.0285068
0.0285658
0.0476878
0.0480457
0.0478823
0.0479924
0.0161787
0.0163896
0.0448789
0.0448113
0.0179379
0.018313
0.0183665
0.0182326
0.0348664
0.0351109
0.0355608
0.0352871
0.0349785
0.0351891
0.0355252
0.0359828
0.0357774
0.0360366
0.0358538
0.0359249
0.0358695
0.035955
0.0356437
0.0359401
0.0358531
0.0350853
0.0358045
0.000913758
0.00104443
0.00134912
0.0611515
0.0613898
0.0613105
0.0243239
0.0241866
0.0236739
0.0241397
0.0260721
0.0261483
0.0260834
0.0262081
0.0260764
0.031814
0.0316513
0.031647
0.0608659
0.0606681
0.0607418
0.00154317
0.00153271
0.00142428
0.0615727
0.0613605
0.061717
0.0615229
0.0437896
0.0436122
0.0437346
0.0603508
0.060698
0.0607828
0.0259596
0.0259029
0.0261797
0.0263271
0.0267992
0.026341
0.0269644
0.0269676
0.0271887
0.0421909
0.0421266
0.0420125
0.0282552
0.0282249
0.0281479
0.0281451
0.0323187
0.0323104
0.0325554
0.0320708
0.0327631
0.0328139
0.0325826
0.00345104
0.00348854
0.00349637
0.0472701
0.0474102
0.0472657
0.0381165
0.0387532
0.0387472
0.0386693
0.0385676
0.0385214
0.0385446
0.00139104
0.00130652
0.00122491
0.00140463
0.0595536
0.0594208
0.0594462
0.0220344
0.022176
0.0216664
0.00344052
0.00323252
0.00344596
0.00341805
0.00346283
0.00347327
0.0026356
0.00275503
0.00283016
0.00205326
0.0028161
0.00281866
0.00285919
0.04008
0.0401024
0.0401032
0.0397122
0.0602116
0.0601334
0.0304694
0.0304772
0.0304442
0.0302588
0.0370871
0.0368523
0.036061
0.0364362
0.0372733
0.0373795
0.0373061
0.0375889
0.037471
0.0441139
0.0439942
0.0440229
0.0437881
0.00431802
0.00451631
0.0026164
0.00268698
0.00263533
0.0365792
0.0366356
0.0361224
0.0364255
0.0365918
0.0218147
0.021214
0.0212395
0.0213893
0.0211353
0.00264368
0.00258213
0.00245221
0.0430733
0.0428111
0.0431514
0.0430396
0.0435671
0.0245683
0.0243661
0.0244022
0.0244256
0.0243326
0.0244259
0.0617017
0.062209
0.0621041
0.0621905
0.0618691
0.01608
0.0156539
0.0161256
0.016232
0.00110866
0.0011529
0.000949185
0.00105897
0.00101827
0.0475895
0.0476517
0.047593
0.047815
0.0329347
0.0328211
0.032938
0.037755
0.0381412
0.0378158
0.0630141
0.0626564
0.0627388
0.0628419
0.06277
0.0617374
0.0615019
0.061778
0.0616159
0.0616758
0.0618895
0.062493
0.0628133
0.0627561
0.0628405
0.0339428
0.0338151
0.0338491
0.0338371
0.0156603
0.0162753
0.0162328
0.0161674
0.0604056
0.0606843
0.0606822
0.0323259
0.0325536
0.0325503
0.0323987
0.0327352
0.0327579
0.0325279
0.000563792
0.00069959
0.000533429
0.00046001
0.000243202
0.000329808
-0.000184011
-9.58856e-05
-0.00019077
-0.00010452
-7.07328e-05
-0.000110805
-0.0002008
-4.1559e-05
2.78727e-05
0.0317823
0.03187
0.0317638
0.0316771
0.0318088
0.0317052
0.0316699
0.0317176
-1.87631e-05
0.000128276
-0.000585148
-0.000130459
-0.000886247
-0.000669296
-9.67517e-05
-8.61644e-05
5.04214e-06
8.26109e-05
1.74805e-05
0.0338124
0.0338426
0.0338198
0.0339056
0.0336214
0.0195309
0.0192591
0.0194625
0.0195811
0.0191639
0.0194571
0.0537769
0.0536549
0.0535093
0.0531239
0.0607793
0.0606477
0.0606492
0.0308013
0.0306864
0.0306862
0.0307294
0.0379982
0.0379481
0.038113
0.0378375
0.0373866
0.037564
0.0043021
0.00426949
0.00446657
0.00438736
0.00441523
0.00437985
0.0042321
0.0541042
0.0539453
0.054174
0.032285
0.0319355
0.0319611
0.0322232
0.0325492
0.0324278
0.0328805
0.0325365
0.0323848
0.0324912
0.0324665
0.0322445
0.0325495
0.032474
0.0325952
0.0478549
0.0480566
0.0476587
0.0260252
0.0259189
0.0367995
0.0368607
0.0367723
0.0365132
0.0366813
0.0366831
0.0269864
0.0268993
0.0269336
0.0270999
0.0269343
0.0271041
0.0267724
0.00281919
0.0027164
0.00278609
0.0275845
0.0273607
0.0276248
0.0276784
0.0225692
0.0225854
0.0629834
0.06326
0.062998
0.0633501
0.0631355
0.0631511
0.0632543
0.0632955
0.0630207
0.062385
0.0621323
0.0538995
0.0537669
0.0537311
0.0384455
0.0387388
0.0385778
0.0389216
0.0192563
0.0185259
0.0182362
0.018743
0.0207824
0.0207771
0.0210957
0.0210729
0.0629105
0.0629695
0.0632124
0.0630145
0.0630353
0.0631149
0.0475832
0.0477676
0.047571
0.047693
-0.000435281
-0.000369286
-7.9678e-05
-1.77065e-05
-0.000118018
-0.000291043
-0.000854278
0.00968701
0.00941704
0.00942213
0.0264522
0.0263806
0.0268804
0.0268309
0.0300276
0.0299533
0.0297141
0.0157546
0.0159647
0.0160666
0.0160331
0.0537653
0.0539952
0.0539461
0.0157724
0.0160327
0.0157881
0.0157915
0.00911646
0.00900074
0.00892268
0.00907252
0.0168399
0.016996
0.0172881
0.0170649
0.0172759
0.00074248
0.000840866
0.000723949
0.000575971
0.000133304
0.000785184
0.045755
0.0460396
0.0457516
0.0456898
0.0454342
0.0459467
0.00223625
0.00230298
0.0023517
0.0207625
0.0216054
0.0216155
0.0219752
0.0142436
0.0148268
0.0146248
0.0146463
0.0315977
0.031942
0.0320607
0.0319723
0.0321197
0.0291821
0.0291865
0.0292695
0.0290499
0.029104
0.0289028
0.00976085
0.00887624
0.00942339
0.00951098
0.0175887
0.0175976
0.0176061
0.0176776
0.0175775
0.0173188
0.00951863
0.00968606
0.00962204
0.053586
0.053668
0.0538641
0.037867
0.0376952
-7.30877e-05
-0.000200995
7.41947e-05
6.68504e-05
0.0323749
0.032628
0.0327989
0.0146858
0.0147449
0.0146392
0.0147412
0.0282982
0.0284081
0.0280395
0.0282288
0.0276453
0.0269119
0.0272685
0.0272677
0.0272249
0.0266404
0.049087
0.0491362
0.0492568
0.0488048
0.0415681
0.0418479
0.0414414
0.0413477
0.0414206
0.0417864
0.0415579
0.0417739
0.0417181
0.00323177
0.00363955
0.00325819
0.00340864
0.0314562
0.0312265
0.0310496
0.0309419
0.0314125
0.0180714
0.0180079
0.017758
0.0180851
0.0180424
0.0174873
0.0178621
0.0176092
0.0171135
0.01745
0.0402506
0.0399887
0.0403199
0.0404308
0.0405399
0.0401088
-1.89043e-05
-0.000544912
8.13073e-05
-1.72707e-05
0.000167534
-2.58932e-05
-0.000308783
0.00297875
0.00288728
0.00326481
0.0598421
0.0594632
0.0595211
0.0596002
0.060491
0.0606217
0.0604991
0.0606121
0.060639
0.0607349
0.0605312
0.0425261
0.0424838
0.042243
0.0423425
0.0423875
0.0422334
0.0422731
0.0349512
0.0349705
0.03523
0.0349941
0.035336
0.0352964
0.0351373
0.0375685
0.0374144
0.0460581
0.0460925
0.0459805
0.0459735
0.0456944
0.0461576
0.0310015
0.0310954
0.0312473
0.0313223
0.0316132
0.0314107
0.0312706
0.0313367