/*--------------------------------*- C++ -*----------------------------------*\
  =========                 |
  \\      /  F ield         | OpenFOAM: The Open Source CFD Toolbox
   \\    /   O peration     | Website:  https://openfoam.org
    \\  /    A nd           | Version:  6
     \\/     M anipulation  |
\*---------------------------------------------------------------------------*/
FoamFile
{
    version     2.0;
    format      ascii;
    class       surfaceScalarField;
    location    "0.4";
    object      phi;
}
// * * * * * * * * * * * * * * * * * * * * * * * * * * * * * * * * * * * * * //

dimensions      [0 3 -1 0 0 0 0];

internalField   nonuniform List<scalar> 
245676
(
1.29382e-05
-1.55529e-05
2.61475e-06
1.29382e-05
-1.22738e-05
-3.27915e-06
-1.22738e-05
8.93784e-06
-8.93784e-06
-8.03634e-06
-3.7667e-06
1.1803e-05
-8.03634e-06
9.96248e-06
-1.12984e-05
1.33594e-06
9.96248e-06
1.31503e-05
-1.31503e-05
1.85186e-06
-9.89033e-06
9.89033e-06
5.56021e-06
1.90251e-06
7.50589e-06
2.97435e-06
8.07709e-07
-2.62385e-07
6.79729e-06
8.3136e-06
5.29783e-06
1.04646e-05
-1.13044e-05
8.39799e-07
-1.19655e-05
1.03062e-05
1.65931e-06
-1.04646e-05
-1.50089e-06
1.28498e-05
-1.28498e-05
1.16492e-05
1.20061e-06
1.75888e-06
-7.71835e-06
-5.35307e-06
1.30714e-05
6.354e-06
5.61889e-06
7.41816e-06
1.4548e-05
-1.15608e-05
1.15608e-05
4.37761e-06
6.43133e-06
5.80451e-06
8.53398e-06
9.09238e-06
3.57745e-06
1.48969e-05
1.21697e-05
-1.21697e-05
1.17349e-05
4.34717e-07
1.74141e-07
6.93449e-06
7.00506e-06
5.16069e-06
8.0371e-06
1.02088e-05
-1.02088e-05
1.15451e-05
-1.15451e-05
1.28721e-05
-1.32701e-06
7.02486e-07
7.03414e-06
2.59191e-06
7.38097e-06
-7.57919e-06
7.23236e-06
7.38097e-06
2.59761e-06
-1.19924e-05
1.09741e-05
1.01822e-06
-1.03062e-05
-1.6862e-06
1.04662e-05
-1.04662e-05
-3.85579e-07
1.08518e-05
-1.7502e-05
1.05903e-05
6.9117e-06
1.70426e-05
-9.61738e-06
-7.42522e-06
-4.59416e-07
-9.61738e-06
1.05903e-05
-1.16178e-05
1.18459e-05
-2.28083e-07
-1.09741e-05
-6.43657e-07
1.02352e-05
-1.02352e-05
1.22402e-05
-2.00499e-06
1.77395e-06
9.12915e-06
-9.12915e-06
1.19559e-05
-2.82679e-06
1.72073e-06
-4.86573e-06
-3.67585e-06
-7.03736e-06
-3.25042e-06
2.8643e-08
-7.066e-06
-1.21824e-06
-6.23994e-06
-6.08397e-06
9.29878e-06
-9.29878e-06
1.13816e-05
-2.08286e-06
2.25249e-06
-9.4241e-06
-7.15993e-06
6.28975e-06
-1.57138e-05
-6.35526e-06
-8.14576e-06
-1.3868e-05
-9.47929e-06
9.47929e-06
1.02922e-05
-1.12518e-05
9.59594e-07
8.12903e-07
9.25435e-06
-9.25435e-06
9.93528e-06
-6.80931e-07
6.36502e-07
-6.2732e-06
-4.59988e-06
-5.09381e-06
-1.05981e-05
9.65338e-06
-1.47472e-05
-5.00437e-06
1.06258e-05
-1.06258e-05
1.05903e-05
3.54665e-08
1.33597e-06
-9.73656e-06
-5.73594e-06
-6.66912e-06
-6.76852e-06
1.29163e-05
-1.29163e-05
1.20627e-05
8.53576e-07
1.43693e-06
-8.27735e-06
-2.78396e-06
6.98384e-06
-6.98384e-06
7.12138e-06
-8.4149e-06
-2.2727e-06
-1.0732e-05
1.06106e-05
1.21422e-07
-1.18459e-05
1.11386e-06
6.98546e-06
-6.98546e-06
7.44145e-06
-4.55986e-07
-5.47484e-06
-1.40993e-05
9.9536e-06
4.14571e-06
-1.49079e-05
8.08563e-07
-1.49079e-05
9.9536e-06
1.07986e-05
-7.3297e-06
1.19335e-05
1.61355e-05
-5.33686e-06
6.0568e-06
-7.95736e-06
7.95736e-06
9.22223e-06
-9.22223e-06
-6.78778e-06
1.28446e-05
4.23943e-06
7.71943e-06
1.09467e-05
-1.62087e-05
1.62087e-05
1.46047e-05
-1.46047e-05
-1.47385e-05
1.47385e-05
1.44689e-05
-1.44689e-05
1.1715e-05
-1.26068e-05
8.91783e-07
1.1715e-05
-1.49505e-05
2.34367e-06
-1.49505e-05
1.23077e-05
-1.0609e-05
-1.6987e-06
1.13677e-05
9.40068e-07
1.13677e-05
1.22061e-05
-8.38388e-07
-8.38855e-06
1.23894e-05
-4.00086e-06
9.47778e-06
-9.47778e-06
-8.38855e-06
-1.0609e-05
1.26387e-05
-1.25247e-05
-1.14024e-07
2.02964e-06
9.28683e-06
-1.14011e-05
2.11429e-06
9.28683e-06
1.1922e-05
-1.1922e-05
5.20885e-07
1.04816e-05
-1.09657e-05
4.84174e-07
1.04816e-05
1.06971e-05
-1.06971e-05
-2.68664e-07
1.07135e-05
-1.03441e-05
-3.6947e-07
1.07135e-05
9.94605e-06
-9.94605e-06
-3.98014e-07
1.24183e-05
-1.30441e-05
6.25743e-07
1.24183e-05
-1.10255e-05
1.10255e-05
1.18061e-06
-6.66769e-06
4.50998e-06
2.15771e-06
-9.02158e-06
2.35389e-06
-8.608e-06
1.3118e-05
-1.25255e-05
3.91746e-06
-9.47685e-06
-3.04861e-06
-9.02158e-06
-9.47685e-06
-1.53605e-05
1.53605e-05
-1.25247e-05
8.88977e-06
4.22821e-06
-1.55886e-05
1.55886e-05
1.57394e-05
-1.57394e-05
1.53113e-05
-1.53113e-05
-1.1826e-05
1.41107e-05
-2.2847e-06
-1.1826e-05
-1.48183e-05
1.48183e-05
1.30809e-05
-1.30809e-05
1.51877e-05
-1.13795e-05
-3.80813e-06
2.79804e-07
1.46997e-05
-1.46997e-05
-8.28997e-06
-2.74379e-06
-7.23291e-06
7.34844e-06
-8.40549e-06
-7.23291e-06
-2.39605e-06
1.4808e-05
-1.4808e-05
-9.90057e-06
-5.72453e-06
-6.69007e-06
-6.54271e-06
-1.48531e-05
1.48531e-05
1.29614e-05
-1.29614e-05
-5.3813e-06
-5.19151e-06
-7.92551e-06
-6.18355e-06
6.17598e-06
-1.41015e-05
-8.76011e-06
-1.49305e-05
1.49305e-05
1.01231e-05
3.98762e-06
-1.01231e-05
1.16873e-05
-1.56421e-06
-7.83679e-06
-5.89217e-06
-8.59499e-06
-6.77993e-06
7.23576e-06
2.3877e-06
7.69923e-06
-8.14888e-06
7.6854e-06
7.69923e-06
2.0187e-06
-1.27927e-05
1.00497e-05
2.74304e-06
-1.06106e-05
-2.18211e-06
5.41238e-06
7.7014e-06
6.81491e-06
7.06278e-06
1.23146e-05
-1.20167e-05
-2.97892e-07
1.26289e-05
-3.1433e-07
1.26289e-05
6.12259e-06
6.47261e-06
4.9546e-06
-4.05421e-06
8.98484e-06
1.10772e-05
6.7354e-06
1.40268e-05
-1.40268e-05
-1.79622e-05
1.38509e-05
4.1113e-06
-3.93536e-06
1.10693e-05
6.18025e-07
-1.10693e-05
1.20549e-05
-9.85612e-07
7.37925e-06
6.80239e-06
5.71263e-06
9.03234e-06
-1.54819e-05
1.32489e-05
2.23293e-06
-1.38509e-05
-1.63096e-06
1.32489e-05
5.24976e-06
4.42384e-06
7.57502e-06
-2.32526e-06
1.48676e-05
-1.48676e-05
-1.20167e-05
1.49947e-05
-1.35566e-05
-1.43811e-06
2.97808e-06
4.49455e-06
5.05583e-06
-3.62163e-06
8.11618e-06
5.92876e-06
1.49516e-05
-1.49516e-05
1.25491e-05
-4.9421e-07
1.25491e-05
5.31601e-06
4.47957e-06
-5.85713e-06
1.11731e-05
3.81658e-06
1.57792e-05
-1.57792e-05
7.33973e-07
1.51763e-05
-1.51763e-05
1.57352e-05
-1.57352e-05
-1.26301e-05
1.26301e-05
-1.57325e-05
1.57325e-05
-1.5889e-05
1.5889e-05
-1.35566e-05
1.91901e-05
-4.58543e-06
-1.23142e-05
1.23142e-05
6.91631e-06
1.28788e-05
-1.28788e-05
1.26726e-05
-1.26726e-05
1.63844e-05
-1.63844e-05
-1.24146e-05
1.24146e-05
1.32763e-05
-1.32763e-05
-1.25919e-05
1.25919e-05
1.32824e-05
-1.32824e-05
-1.34504e-05
1.2353e-05
1.0974e-06
-1.34504e-05
1.00497e-05
1.33283e-05
-1.33283e-05
-1.16311e-05
1.16311e-05
5.81585e-06
6.2846e-06
3.48781e-06
-4.38949e-06
1.28632e-05
9.30366e-06
3.70669e-06
-3.98847e-06
1.18178e-05
9.99129e-06
1.01723e-05
2.18063e-06
1.01723e-05
8.1146e-06
4.26741e-06
-3.95023e-06
1.16797e-05
1.2382e-05
8.3964e-06
1.42364e-05
-1.38728e-05
-3.63669e-07
1.42364e-05
1.32979e-05
-1.15811e-05
-1.71683e-06
1.14124e-05
1.88549e-06
1.14124e-05
8.86932e-06
-1.25194e-05
-1.35337e-06
1.25194e-05
-1.66643e-05
4.14487e-06
3.73065e-06
9.13547e-06
-1.30749e-05
-3.58934e-06
-1.30749e-05
1.25195e-05
-1.25195e-05
7.4009e-06
5.56387e-06
-1.41395e-05
1.41395e-05
7.68568e-06
5.0367e-06
-1.29939e-05
1.03572e-05
2.63667e-06
-1.20288e-05
-9.65019e-07
-1.20288e-05
1.45808e-05
-1.24205e-05
-2.1603e-06
1.15811e-05
2.99971e-06
4.70532e-06
-4.29633e-06
1.24642e-05
-8.13614e-06
1.28415e-05
4.7345e-06
1.46679e-05
-1.46679e-05
7.49994e-06
5.0854e-06
1.1605e-05
-1.39131e-05
2.30814e-06
1.1605e-05
8.4283e-06
-1.29674e-05
-9.45699e-07
1.29674e-05
-1.33542e-05
3.86837e-07
-1.27205e-05
1.27205e-05
5.40374e-06
7.21993e-06
-1.24205e-05
7.44994e-06
5.2735e-06
1.52224e-05
-1.52224e-05
5.59375e-06
7.62932e-06
1.48467e-05
-1.48467e-05
8.39761e-06
4.88064e-06
4.49079e-06
-3.7852e-06
1.26381e-05
1.28884e-05
1.4574e-05
-1.4574e-05
1.19536e-05
-1.27898e-05
8.36148e-07
1.19536e-05
7.41577e-06
5.68491e-06
-1.32632e-05
1.35686e-05
-3.05396e-07
-1.32632e-05
9.34265e-06
-1.17819e-05
1.0924e-05
8.57833e-07
-1.03572e-05
-1.42469e-06
6.74455e-06
4.87823e-06
1.14798e-05
-1.06174e-05
-8.62405e-07
1.12518e-05
2.28004e-07
-1.07186e-05
1.06496e-05
6.89917e-08
-1.0924e-05
2.0546e-07
7.01971e-06
4.6085e-06
3.54616e-06
1.07849e-05
-3.41681e-06
5.18788e-06
5.91775e-06
4.12746e-06
-4.76863e-06
4.09795e-06
1.31256e-05
6.21833e-06
1.14062e-05
-1.11212e-05
-2.23309e-06
1.11212e-05
-1.28147e-05
1.69354e-06
-1.26007e-05
-1.8904e-07
1.26007e-05
-1.45109e-05
1.91016e-06
1.15161e-05
9.41485e-06
4.15378e-06
9.41485e-06
6.38727e-06
1.48621e-05
-5.76515e-06
4.26092e-06
1.43422e-05
6.27139e-06
9.81755e-06
-5.406e-06
5.47212e-06
1.37477e-05
7.75736e-06
1.20183e-05
5.62077e-06
6.40155e-06
1.28514e-05
-1.45585e-05
1.45585e-05
4.16949e-06
1.11425e-05
-7.31046e-06
1.14799e-05
7.17919e-06
1.35807e-05
-7.53931e-06
1.47185e-05
-7.16036e-06
7.42198e-06
1.42027e-05
5.4471e-06
8.22511e-06
-7.30023e-06
1.47222e-05
-6.45393e-06
3.92154e-06
1.31079e-05
8.76958e-06
5.61098e-06
1.51568e-05
1.06569e-05
-1.4559e-05
9.60309e-06
4.95593e-06
-1.06496e-05
-3.90943e-06
-9.7746e-06
-4.73627e-06
9.7746e-06
-1.12837e-05
1.50912e-06
6.23926e-06
1.18357e-05
-1.15778e-05
1.24104e-05
-8.32569e-07
-1.15778e-05
-1.58359e-05
3.02116e-06
-1.58359e-05
-5.9289e-06
1.21682e-05
5.96981e-06
4.67911e-06
1.36439e-05
-1.36439e-05
4.91199e-06
7.02276e-06
7.69845e-06
1.26848e-05
1.06174e-05
-8.17503e-06
-2.44236e-06
8.44414e-06
1.21245e-05
-6.19184e-06
1.4636e-05
-9.60309e-06
8.34232e-06
1.26077e-06
4.68646e-06
7.92353e-06
8.04957e-09
-1.12918e-05
6.41435e-06
1.07662e-05
-7.68165e-06
1.4096e-05
6.37106e-06
7.46417e-06
1.40695e-05
1.49665e-05
-1.03669e-05
-4.59962e-06
1.49665e-05
1.24036e-05
-1.24036e-05
9.92966e-06
2.47393e-06
1.89332e-06
6.69377e-06
5.89491e-06
-1.27638e-05
1.38012e-05
-1.03741e-06
-1.27638e-05
9.56646e-06
-9.56646e-06
-2.04607e-06
1.16125e-05
2.84393e-06
4.18385e-06
-8.8908e-07
3.84963e-07
1.10951e-05
-8.94017e-06
-2.15494e-06
1.10951e-05
-1.32904e-06
7.62813e-07
1.09596e-05
-1.47281e-05
3.76849e-06
1.09596e-05
-1.17381e-05
1.18799e-05
-1.41864e-07
-7.78506e-07
1.18799e-05
-1.20735e-05
1.08853e-05
1.18818e-06
-1.93534e-07
-1.28051e-05
-1.923e-06
-1.28051e-05
-1.5592e-06
1.08853e-05
1.30051e-05
-1.30051e-05
1.25688e-05
-1.25688e-05
-1.38394e-05
1.1516e-05
2.3234e-06
-1.27065e-06
1.21215e-05
-1.32221e-05
1.10056e-06
1.21215e-05
-1.27833e-05
1.16047e-05
1.1786e-06
-6.61747e-07
1.16047e-05
-1.21704e-05
1.15133e-05
6.5702e-07
-5.65684e-07
1.3173e-05
-1.3173e-05
1.1516e-05
-1.44342e-05
1.33235e-05
1.11068e-06
-2.91815e-06
1.30222e-05
-1.30222e-05
-1.99855e-07
1.15133e-05
1.34204e-05
-1.34204e-05
-1.28986e-05
1.12445e-05
1.65414e-06
-1.33235e-05
4.24895e-07
1.34278e-05
-1.34278e-05
-1.3538e-05
1.3538e-05
1.33693e-05
-1.27328e-05
1.3586e-05
-1.3586e-05
1.12445e-05
1.29569e-05
-1.29569e-05
-1.33762e-05
1.33762e-05
1.34059e-05
-1.34059e-05
-1.30691e-05
1.30691e-05
-1.38592e-05
1.38592e-05
1.31477e-05
-1.31477e-05
1.14046e-05
-1.34966e-05
2.09195e-06
1.14047e-05
-1.30862e-05
1.30862e-05
-1.34387e-05
1.34387e-05
1.37169e-05
-1.37169e-05
1.04341e-05
-1.36599e-05
3.22581e-06
1.04341e-05
-3.06251e-06
1.35061e-05
-1.35061e-05
-1.62568e-05
1.6431e-05
-1.28488e-05
1.28488e-05
1.03101e-05
-1.34447e-05
3.13462e-06
1.03101e-05
-3.34981e-06
-1.4577e-05
1.23794e-05
2.1976e-06
-1.27349e-05
-1.84208e-06
-1.27349e-05
-1.32986e-05
1.50575e-05
1.8568e-06
-1.39548e-05
1.3644e-05
-1.3644e-05
3.60447e-06
1.12849e-05
-1.30375e-05
2.15769e-05
-1.79724e-05
1.26208e-05
-1.30643e-05
1.30643e-05
1.0435e-05
-1.4908e-05
4.47303e-06
1.0435e-05
-3.00976e-06
1.23794e-05
-1.38725e-05
1.1535e-05
2.33743e-06
-1.49307e-06
1.38268e-05
-1.38268e-05
-1.3691e-05
1.3691e-05
-8.42462e-07
1.13068e-05
-1.04643e-05
-1.01038e-05
-4.8042e-06
1.01038e-05
-1.28087e-05
2.70495e-06
1.1535e-05
-1.30377e-05
1.30377e-05
1.39841e-05
-1.39841e-05
1.01509e-06
-1.86448e-05
1.76297e-05
1.50022e-05
-1.27072e-05
-1.27995e-06
1.10481e-05
3.95416e-06
2.14829e-06
-1.48555e-05
-1.15923e-05
-1.21645e-06
1.15923e-05
-1.19102e-05
3.17936e-07
-1.43463e-05
1.43463e-05
9.41014e-07
1.0107e-05
-1.5922e-05
1.1945e-05
3.97702e-06
-1.36329e-05
-2.28912e-06
-1.36329e-05
1.10501e-05
-1.4037e-05
2.98695e-06
1.10501e-05
-1.22998e-05
1.37367e-05
-1.17869e-05
-1.23326e-07
-1.17869e-05
-1.35471e-05
1.35471e-05
7.3773e-07
1.58341e-05
-1.65718e-05
-1.27967e-05
1.17921e-05
1.00461e-06
-1.1945e-05
-8.51762e-07
-1.1843e-05
-2.19402e-06
1.1843e-05
-1.34053e-05
1.56231e-06
1.18797e-05
-1.24111e-05
5.3145e-07
1.18797e-05
-1.32689e-05
1.19655e-05
1.30349e-06
-1.33609e-05
9.19858e-08
-1.33609e-05
-1.35655e-05
1.60156e-07
1.35655e-05
-1.55775e-05
2.012e-06
-1.17921e-05
1.40157e-05
-2.22357e-06
1.19655e-05
-9.80899e-06
-5.76847e-06
9.80899e-06
-1.2414e-05
2.60498e-06
-1.19903e-05
-4.20778e-07
1.19903e-05
-1.22539e-05
2.63536e-07
-1.32453e-05
1.32453e-05
-1.09372e-05
1.01904e-06
9.91817e-06
1.05192e-06
-6.79822e-07
-1.13093e-05
1.3064e-05
-1.3064e-05
-1.449e-05
1.29015e-05
1.58849e-06
-1.42599e-06
1.22209e-05
1.79479e-06
-1.22209e-05
1.22505e-05
-2.96592e-08
-1.21956e-05
-2.18334e-07
1.21956e-05
-1.3354e-05
1.15833e-06
8.07223e-06
6.02158e-06
-1.40938e-05
-8.91188e-06
7.57565e-06
7.74394e-06
-1.53196e-05
-6.89329e-06
8.83504e-06
-1.54906e-05
8.23478e-06
5.97702e-06
-1.42118e-05
-6.79969e-06
-5.81737e-06
-1.08754e-05
-1.3785e-06
1.08754e-05
-1.088e-05
4.60865e-09
-1.29015e-05
1.26115e-05
2.89984e-07
1.02576e-05
1.99299e-06
-1.02576e-05
1.54202e-05
-5.16261e-06
-1.27382e-05
-6.15737e-07
1.27382e-05
-1.3103e-05
3.64729e-07
-5.73631e-06
-7.55552e-06
-1.87562e-05
7.4244e-06
5.97608e-06
-1.34005e-05
-9.54103e-06
-5.36295e-06
-7.39294e-06
-7.13097e-06
-7.40203e-06
-7.07225e-06
-4.51324e-06
-8.27249e-06
-6.59033e-06
9.03029e-06
-1.73028e-05
-1.01904e-05
3.11816e-06
8.82624e-06
5.54843e-06
-1.43747e-05
-1.37768e-05
1.03742e-05
2.23735e-06
-1.03742e-05
1.49646e-05
-4.59039e-06
-1.36452e-05
1.14681e-05
2.17703e-06
-3.68267e-06
8.5562e-06
-1.6393e-05
1.14681e-05
-1.26759e-05
1.0982e-05
1.69394e-06
-1.20779e-06
-1.15474e-05
1.15474e-05
-1.33545e-05
1.80703e-06
-1.55552e-06
-1.28477e-05
1.0982e-05
-1.13355e-05
2.42664e-06
8.90889e-06
-3.53555e-07
-8.32298e-06
1.07496e-05
-9.49869e-08
-8.58155e-06
8.90889e-06
-9.9608e-06
1.09798e-05
-1.15864e-05
7.06443e-07
1.15864e-05
-1.39079e-05
2.3215e-06
-5.60141e-06
9.26083e-06
-8.68852e-06
-5.72308e-07
8.42364e-06
8.37191e-07
-8.42364e-06
9.6963e-06
-1.27266e-06
8.611e-06
1.08529e-06
-8.611e-06
1.07593e-05
5.66485e-06
9.75531e-06
-6.09465e-06
-8.79754e-06
-9.47934e-06
1.04204e-05
-9.47935e-06
6.70976e-06
6.56277e-06
-1.32725e-05
-1.1045e-05
-5.66543e-06
-8.90753e-06
1.08868e-05
-1.97927e-06
-8.90753e-06
1.51283e-06
7.18091e-06
-1.16454e-05
5.88095e-06
5.18417e-06
-1.10651e-05
9.77698e-06
-1.54424e-05
-1.27542e-05
9.96811e-06
9.18692e-07
-9.96811e-06
1.07058e-05
7.03845e-06
6.95296e-06
-1.39914e-05
-1.28616e-05
1.28616e-05
-8.9008e-06
-3.96078e-06
1.68952e-06
-1.09798e-05
1.00893e-05
8.90564e-07
1.48086e-05
-1.94707e-06
-1.30504e-05
1.30504e-05
1.75822e-06
8.98735e-06
1.71849e-06
-8.98735e-06
1.04247e-05
-1.43732e-06
-3.04058e-07
-1.02134e-05
9.22749e-06
9.85944e-07
-1.02134e-05
2.11242e-07
8.93139e-06
2.96095e-07
-8.93139e-06
1.13642e-05
-2.43276e-06
1.20749e-05
-8.39083e-06
-3.68411e-06
1.20749e-05
-1.83296e-06
9.9202e-06
5.04439e-06
9.9202e-06
-1.01247e-05
1.11803e-05
-1.05565e-06
-1.01247e-05
1.23946e-06
-1.2159e-05
1.18821e-05
2.76823e-07
-1.2159e-05
1.00427e-05
1.13769e-06
-1.00427e-05
1.21634e-05
-2.12077e-06
2.68659e-06
5.45873e-06
-9.07847e-06
-3.9071e-06
9.46661e-06
-7.52923e-06
-1.93738e-06
8.68852e-06
7.78088e-07
6.51294e-06
-1.08143e-05
-7.75287e-06
1.01757e-05
-8.64293e-08
1.01757e-05
1.22635e-05
-2.08777e-06
-1.02248e-05
9.76877e-06
4.64922e-06
8.75515e-06
-8.57602e-06
-1.79125e-07
7.52923e-06
1.22592e-06
8.31393e-07
-1.03546e-05
1.06339e-05
-2.79313e-07
-1.03546e-05
1.13795e-05
8.83934e-07
1.07627e-05
-1.16052e-05
8.57602e-06
2.18672e-06
-6.19646e-06
-1.16052e-05
1.16477e-05
-3.02766e-06
-8.62003e-06
4.24871e-08
-4.10764e-06
1.00364e-05
1.21174e-05
1.21087e-05
-9.79478e-06
-2.31393e-06
1.09419e-05
1.16677e-06
1.09419e-05
1.22917e-05
-1.34975e-06
-5.11978e-06
-1.10405e-05
5.93551e-06
-6.40209e-07
-9.79478e-06
1.43803e-05
-1.28811e-05
-1.49912e-06
4.58547e-06
3.65009e-06
1.06891e-05
1.60263e-06
1.06891e-05
-1.28811e-05
-1.33269e-05
1.33269e-05
1.25206e-05
-1.25206e-05
-1.23028e-05
1.23028e-05
8.06837e-06
-1.02046e-05
2.13621e-06
8.06837e-06
1.21472e-05
-1.21472e-05
-1.26634e-05
1.26634e-05
1.26011e-05
-1.26011e-05
-1.26804e-05
1.26804e-05
1.10713e-05
-1.10713e-05
-2.33065e-07
-1.15319e-05
1.15319e-05
1.27324e-05
-1.21075e-05
-6.24949e-07
1.20052e-06
-1.05033e-05
-5.67973e-07
1.16795e-05
-1.16795e-05
1.1762e-06
1.00777e-05
-1.00777e-05
1.1844e-05
-1.7663e-06
1.64515e-07
1.09294e-05
-1.09294e-05
1.24594e-05
-1.53e-06
2.38169e-06
-1.40069e-05
1.52616e-05
-1.25474e-06
-1.40069e-05
-8.89942e-06
8.89942e-06
-1.2605e-05
3.70553e-06
1.11503e-05
-1.11503e-05
-1.45469e-06
-1.21075e-05
1.26441e-05
-1.24746e-05
-1.69465e-07
5.36631e-07
1.04313e-05
4.83035e-06
-1.04313e-05
1.38153e-05
-3.38401e-06
1.01601e-05
-1.03457e-05
1.85612e-07
1.01601e-05
-4.45157e-08
9.68597e-06
-9.68597e-06
-6.59712e-07
-9.52861e-06
-7.84859e-07
1.03135e-05
9.52861e-06
-1.05973e-05
1.06874e-06
1.23638e-05
-1.09881e-05
-1.37571e-06
1.24746e-05
-1.10812e-07
1.04451e-05
3.3702e-06
-1.04451e-05
1.42633e-05
-3.81824e-06
9.25566e-06
-1.05724e-05
1.31678e-06
9.25566e-06
-1.34168e-06
1.16543e-05
-1.16543e-05
1.0819e-06
1.09881e-05
-1.3633e-05
2.64484e-06
9.79499e-06
-1.05798e-05
7.84826e-07
9.79499e-06
1.02905e-05
3.97283e-06
-1.02905e-05
1.38581e-05
-3.56765e-06
8.81142e-06
-1.04018e-05
1.59036e-06
8.81142e-06
-1.76839e-06
1.00539e-05
-9.96831e-06
-8.55732e-08
1.00539e-05
-3.4789e-07
-9.62955e-06
-3.38764e-07
9.62954e-06
-1.01089e-05
4.79311e-07
-1.27186e-05
-9.14395e-07
-1.27186e-05
6.04682e-07
-9.95941e-06
1.40387e-05
-4.07925e-06
-9.95941e-06
3.89874e-06
-1.08381e-05
8.92068e-07
-9.18074e-06
-1.65738e-06
9.18074e-06
-1.0758e-05
1.57724e-06
1.1534e-05
-1.1534e-05
1.1038e-05
-3.54875e-07
-1.06831e-05
1.1038e-05
2.80017e-07
-9.25864e-06
1.35104e-05
-4.25171e-06
-9.25864e-06
4.78001e-06
9.70765e-06
-1.08852e-05
1.17759e-06
9.70765e-06
-1.03992e-05
-4.86046e-07
1.03992e-05
-1.05511e-05
1.51952e-07
-9.84264e-06
-7.08507e-07
9.84264e-06
-1.12193e-05
1.37662e-06
1.24526e-05
-1.212e-05
-3.32599e-07
1.24526e-05
9.06152e-06
-1.03174e-05
1.25591e-06
9.06152e-06
-2.15774e-06
-1.20062e-05
1.20062e-05
1.50413e-06
1.0799e-05
-1.06904e-05
-1.08558e-07
1.0799e-05
4.81577e-07
-9.9556e-06
-7.34854e-07
9.9556e-06
-1.13496e-05
1.39404e-06
9.22392e-06
-1.10275e-05
1.8036e-06
9.22392e-06
-2.12571e-06
-1.1583e-05
-5.36971e-07
1.2488e-05
-1.17547e-05
-7.33265e-07
1.1583e-05
9.04947e-07
-1.07111e-05
-3.1646e-07
1.07111e-05
-8.78548e-07
-9.83251e-06
1.14186e-05
-1.14186e-05
-1.12448e-05
5.47681e-07
-9.90967e-06
-1.33509e-06
9.90967e-06
-1.06664e-05
7.56763e-07
1.21254e-05
-1.21483e-05
2.29446e-08
1.17547e-05
3.70662e-07
-9.15193e-06
-1.5145e-06
9.15193e-06
-1.03645e-05
1.21262e-06
-1.34954e-05
1.46853e-05
-1.18986e-06
-1.34954e-05
1.05079e-05
-1.08243e-05
3.16392e-07
1.05079e-05
1.43396e-07
-1.04699e-05
-3.54443e-07
1.04699e-05
-9.99785e-06
-4.72045e-07
1.03808e-05
-1.10168e-05
6.36009e-07
1.03808e-05
3.82946e-07
-1.19401e-05
9.2334e-07
-1.19401e-05
1.29495e-05
-1.13337e-05
-1.61583e-06
1.21483e-05
8.01188e-07
9.33025e-06
-1.11843e-05
1.85408e-06
9.33025e-06
-1.28529e-05
1.66855e-06
-1.28529e-05
1.04686e-05
-1.09315e-05
4.62909e-07
1.04686e-05
-1.03398e-05
-5.91723e-07
1.03398e-05
-1.06965e-05
3.56742e-07
1.22648e-05
2.42047e-06
-1.22648e-05
1.20791e-05
1.85759e-07
-1.40971e-06
1.06528e-05
-1.07848e-05
1.32046e-07
1.06528e-05
9.72731e-06
-1.16092e-05
1.88185e-06
9.72731e-06
-1.05751e-06
1.32591e-05
-1.12841e-05
-1.97507e-06
1.13337e-05
1.92546e-06
-1.1517e-05
-9.21803e-08
-1.1517e-05
-1.09303e-05
1.09303e-05
-1.09791e-05
1.09791e-05
-1.03796e-05
1.03796e-05
9.84876e-06
2.2303e-06
-9.84876e-06
1.37179e-05
-3.86911e-06
1.26382e-05
-1.27629e-05
1.24701e-07
1.12841e-05
1.3541e-06
-1.25675e-05
4.17892e-06
-1.29426e-05
3.75164e-07
-1.29426e-05
1.10374e-05
2.68049e-06
1.10374e-05
-1.27629e-05
-1.40444e-05
1.40444e-05
1.05195e-05
-2.82023e-06
-3.52498e-06
7.08695e-06
5.29107e-06
-1.2378e-05
6.18565e-06
-1.12634e-05
7.23606e-06
5.25742e-06
-1.24935e-05
-9.34001e-06
-6.03196e-06
-5.74061e-06
-7.56386e-06
-1.17943e-05
-5.27305e-06
-5.89882e-06
-6.95003e-06
-4.26019e-06
-8.2859e-06
-4.93699e-06
-8.10036e-06
-7.36606e-06
-5.14821e-06
-8.62638e-06
-4.74376e-06
-9.03257e-06
-5.02556e-06
-8.61195e-06
-4.72169e-06
-4.50643e-06
-8.29128e-06
-7.70934e-06
-4.86515e-06
-5.43764e-06
6.66083e-06
-1.34068e-05
-1.3147e-05
-5.23518e-06
6.89097e-06
-1.37454e-05
7.7156e-06
-1.29508e-05
-4.98653e-06
-8.99946e-06
-9.26556e-06
-8.0352e-06
-4.34008e-06
-7.7917e-06
-4.16424e-06
4.79119e-06
-8.0914e-06
3.30021e-06
7.18942e-06
-2.39823e-06
-1.29614e-05
5.11103e-06
7.85036e-06
-3.25006e-06
-4.84134e-06
2.34993e-07
-1.31964e-05
-1.42308e-05
1.44658e-05
4.64461e-06
-8.95018e-06
4.30557e-06
7.24513e-06
-2.60052e-06
1.07331e-06
2.92176e-06
8.13381e-07
-1.81582e-05
1.73449e-05
1.48597e-05
-1.40463e-05
1.52263e-06
-8.93686e-07
-1.96472e-05
1.48891e-06
1.13771e-05
-1.44629e-05
3.08582e-06
-2.96696e-07
-1.62641e-06
-1.28365e-05
-1.56728e-05
-6.29401e-06
-2.65617e-06
-1.01444e-05
7.5439e-06
-4.25815e-06
6.04101e-06
-7.09548e-07
-5.91576e-06
9.07777e-06
-3.162e-06
-5.86835e-06
3.13174e-06
5.94603e-06
4.33141e-06
-1.78806e-06
-1.20651e-05
1.38532e-05
1.40749e-05
-1.5863e-05
-1.47762e-06
-1.13557e-05
1.46073e-05
-1.35428e-05
9.60088e-06
-1.06071e-05
-4.67415e-06
7.49584e-06
-2.82169e-06
4.24914e-07
2.09036e-06
1.9287e-05
3.45774e-06
-2.27448e-05
3.8666e-06
3.62924e-06
1.51317e-05
-1.64301e-06
-1.34887e-05
6.29657e-06
1.75815e-05
-8.74636e-06
1.28457e-05
-1.44887e-05
1.29588e-08
-7.10033e-07
5.0675e-07
5.80278e-06
-2.15072e-06
-3.21088e-06
6.37425e-06
-2.29493e-06
-4.07931e-06
1.06152e-06
1.10042e-05
-1.53041e-05
-5.276e-07
-1.30558e-05
-1.50163e-05
1.88309e-06
4.77932e-06
-6.66241e-06
-1.39995e-05
4.32505e-06
-8.40436e-06
-5.17984e-06
-3.62505e-06
-7.16026e-06
1.40717e-05
6.37877e-06
-3.5086e-06
-2.32357e-06
1.17499e-05
-2.10917e-06
2.75838e-06
2.35899e-06
7.14212e-06
1.14321e-06
-2.9875e-06
-6.11714e-06
1.32593e-05
-3.54599e-06
1.14865e-05
7.61199e-06
-4.20484e-06
3.11985e-06
3.82617e-06
-8.74991e-06
2.63277e-06
-5.63006e-06
-1.56478e-05
-1.7425e-06
1.73903e-05
1.30008e-05
-9.36149e-06
-3.72269e-06
-5.69662e-06
9.41931e-06
7.42099e-06
-7.27708e-06
2.5329e-06
-8.22952e-06
1.42523e-05
-1.30464e-05
-1.20066e-06
1.61554e-05
1.32881e-05
-1.44888e-05
-7.07127e-07
1.39953e-05
-1.4123e-05
1.34159e-05
-5.90739e-06
9.13368e-06
-3.22628e-06
3.51192e-06
-1.58655e-05
-2.64227e-06
7.873e-06
-5.23073e-06
7.48284e-06
-1.01251e-05
4.72476e-06
3.14823e-06
-7.50586e-06
4.6506e-06
2.85526e-06
5.54395e-06
-5.56697e-06
-2.88608e-06
7.53667e-06
7.38264e-06
3.98841e-06
3.54826e-06
1.52373e-05
-3.38417e-06
-1.18532e-05
2.45005e-06
-2.88546e-06
1.47483e-05
-1.81325e-05
-2.44877e-06
-4.77623e-07
-5.43101e-06
7.28797e-07
5.31054e-06
-1.05017e-06
-4.26037e-06
2.17675e-06
-2.28427e-05
2.25706e-05
9.38164e-06
-1.04318e-05
-3.21058e-05
1.21096e-05
-2.39628e-05
1.27308e-05
-6.21205e-07
3.64447e-06
-7.90484e-06
-5.41159e-06
-3.02505e-06
-4.87979e-06
3.77103e-06
6.47013e-07
-4.41805e-06
6.37234e-06
-2.60131e-06
9.6169e-06
-8.96989e-06
-2.99627e-07
-4.11842e-06
7.95667e-06
-3.48163e-06
-4.47504e-06
9.40518e-07
1.78543e-06
-6.53361e-06
3.05198e-06
-1.77559e-06
-4.75802e-06
1.12212e-05
-8.16921e-06
2.03659e-06
7.34956e-06
-5.70994e-06
-1.63962e-06
6.47452e-06
8.7504e-07
-1.86086e-06
7.20493e-06
6.75967e-06
2.83765e-06
3.01221e-06
-7.14611e-06
1.09631e-05
-3.817e-06
9.61424e-06
2.32193e-06
-1.89977e-06
1.5489e-06
8.06534e-06
5.44209e-07
-2.59235e-06
1.39817e-05
1.49835e-05
1.49452e-05
-1.40211e-06
1.40532e-05
8.92006e-07
-8.14141e-06
9.95293e-07
-4.22656e-06
-3.91485e-06
-9.84838e-06
1.00457e-05
8.24875e-07
1.73508e-06
1.96585e-06
8.18225e-06
9.17755e-06
1.07265e-05
-3.08106e-06
-4.11217e-06
7.19323e-06
-6.15109e-06
3.07003e-06
-3.62788e-06
-2.5232e-06
-5.01354e-06
9.45099e-06
-1.16261e-05
-8.45775e-06
2.00838e-05
-1.18069e-05
1.4234e-05
1.14523e-05
-5.12364e-06
-6.32865e-06
3.78175e-06
7.67054e-06
6.85178e-06
7.77285e-06
-1.62306e-05
4.45775e-06
5.51221e-06
6.63251e-06
7.64684e-06
9.03851e-06
-1.24405e-05
8.32832e-06
7.73696e-06
-1.71023e-05
2.00134e-05
-2.9111e-06
2.9815e-06
-2.28628e-06
9.61828e-06
-7.332e-06
4.26211e-06
-6.54839e-06
6.14021e-06
-1.8781e-06
-4.75482e-06
-1.79357e-06
-1.20064e-06
9.65012e-06
-8.44948e-06
-5.36362e-06
-5.42406e-06
1.07877e-05
-6.56426e-06
2.90223e-06
-6.58821e-06
-6.74886e-06
-3.48998e-06
-2.59465e-06
-9.52454e-06
-2.84291e-06
6.28349e-06
2.39277e-06
-1.19173e-05
-4.14538e-06
-7.34185e-06
-1.32282e-05
-9.0362e-06
-8.0483e-06
6.89409e-06
-6.64343e-06
-5.4231e-06
1.24295e-05
-7.00643e-06
-1.76323e-06
1.36172e-05
-1.18539e-05
-1.17847e-05
1.22082e-05
1.12308e-05
-1.17087e-05
3.19259e-06
8.03823e-06
-4.96212e-06
8.15472e-06
2.6206e-07
1.1767e-05
8.30029e-06
9.39622e-07
1.20533e-05
-7.50358e-06
8.4432e-06
-1.03852e-05
6.1136e-06
6.83505e-06
1.07673e-06
-7.91178e-06
-2.0891e-06
6.80218e-06
-4.71308e-06
4.74595e-06
8.75965e-06
-4.0137e-06
-6.51538e-06
-1.17553e-06
7.69092e-06
-5.05985e-06
-1.45553e-06
-9.41199e-06
4.35213e-06
-8.03647e-06
6.58094e-06
6.5857e-06
-7.94111e-07
-5.79159e-06
6.07782e-06
5.07885e-07
-1.0524e-05
9.72992e-06
-8.2048e-06
2.41321e-06
-1.09549e-05
2.13446e-06
8.82042e-06
-4.84171e-07
-8.53808e-07
-6.24388e-06
8.37834e-06
-3.55708e-07
9.5618e-07
7.42216e-06
8.68062e-07
9.43806e-06
2.69464e-06
2.36605e-06
5.923e-06
-6.23496e-06
5.10322e-06
1.13174e-06
-2.39668e-07
1.03115e-05
1.65168e-05
-1.10978e-06
6.213e-06
8.32515e-06
-3.05063e-06
9.26363e-06
-2.02537e-06
-4.71228e-06
6.73765e-06
4.94625e-06
-2.46997e-06
-2.47628e-06
2.92087e-06
6.15227e-06
-1.8976e-06
-4.25467e-06
1.25991e-06
4.89235e-06
1.98755e-06
-3.1976e-06
6.78252e-06
-1.89017e-06
3.39638e-06
5.3737e-06
9.43279e-06
-1.13539e-06
-8.2974e-06
9.8222e-06
-3.89418e-07
-1.03078e-05
9.17239e-06
6.5497e-06
-8.15965e-06
1.60995e-06
7.27567e-06
-7.25968e-07
-9.80334e-06
1.64369e-06
6.79837e-06
4.2175e-06
-1.10159e-05
-2.8991e-07
7.08828e-06
1.03778e-05
-1.06677e-05
-6.3691e-06
6.94357e-06
-6.49858e-06
6.69503e-06
-1.96448e-07
-4.75816e-06
-1.74042e-06
9.55946e-06
-2.86443e-06
-2.58516e-06
7.65802e-06
4.11198e-06
3.20101e-06
3.1698e-06
-1.53427e-05
8.41568e-06
6.92701e-06
-7.26e-06
-8.08269e-06
-6.63668e-06
4.28868e-06
7.80284e-06
5.68996e-06
4.81745e-06
7.31181e-06
1.75344e-06
-4.93629e-06
-6.13652e-06
3.53369e-06
-4.35554e-06
-7.95943e-06
-3.52583e-06
-8.44806e-06
-5.35655e-06
-6.37909e-06
-7.67038e-06
6.37727e-06
-1.27564e-05
-4.71559e-06
-1.03775e-05
-2.37889e-06
1.0208e-05
-2.05855e-05
-2.96198e-06
1.08005e-05
-7.83855e-06
6.87697e-06
-9.83895e-06
7.26289e-06
-3.85923e-07
-4.66129e-07
-6.76145e-06
7.22758e-06
-7.00403e-06
4.76232e-06
5.5395e-07
-7.3154e-06
-2.84597e-06
-3.76304e-06
6.60901e-06
-7.37338e-06
8.74492e-06
8.6396e-06
-1.24026e-05
6.11332e-06
-1.4227e-05
8.11372e-06
3.76499e-06
-6.66644e-06
-6.01238e-06
-2.89822e-06
-3.2918e-06
-6.34015e-06
-7.6234e-06
-6.55483e-06
-5.98179e-06
5.96907e-06
-1.25239e-05
-8.45402e-06
-6.41058e-06
-5.14464e-06
-7.50247e-06
3.64189e-06
3.45759e-06
-7.09948e-06
1.10802e-05
-7.43827e-06
7.95622e-06
-4.49862e-06
-4.48104e-06
-2.61844e-06
-2.30648e-06
-7.08674e-06
9.39322e-06
-6.56582e-06
7.15992e-06
-5.94099e-07
8.8723e-06
-8.05053e-06
-8.21773e-07
5.05042e-06
-6.4776e-06
1.42717e-06
-7.38403e-07
-8.25848e-06
8.99688e-06
4.31202e-06
-3.56926e-06
-2.90833e-06
7.63383e-06
-6.20665e-06
-3.16463e-06
4.25486e-06
8.24815e-06
1.14995e-05
-1.36067e-05
2.1072e-06
-6.87821e-06
1.83777e-05
-6.69577e-06
-6.91091e-06
-7.28385e-06
6.20885e-06
-7.47235e-06
5.24055e-06
-3.39352e-06
2.50537e-06
5.21326e-06
6.37889e-06
-9.33969e-06
1.01751e-05
-8.35399e-07
-6.87756e-06
-2.46214e-06
6.0919e-08
3.24412e-07
-1.08928e-05
8.43064e-06
-3.13276e-08
6.99246e-06
3.0589e-06
-2.66873e-06
-3.36802e-06
-7.29764e-06
1.06657e-05
7.61286e-06
-6.41798e-06
-8.79657e-07
-2.10845e-07
9.57497e-06
1.09069e-06
-2.87067e-06
1.0078e-05
1.04757e-05
3.26637e-06
3.01761e-06
-7.35067e-06
-1.09429e-06
8.44496e-06
-5.68883e-07
-6.78178e-06
1.0385e-05
-1.09539e-05
4.27217e-06
-1.1054e-05
2.61806e-06
-9.83218e-06
7.21412e-06
-4.5986e-06
7.21666e-06
6.28436e-06
-1.0883e-05
-1.71151e-06
8.92817e-06
-1.16608e-05
1.61815e-06
1.00427e-05
-7.81438e-07
-1.2611e-06
-7.62851e-06
9.24666e-06
-2.26974e-06
-1.80737e-06
1.1054e-05
-8.76768e-06
2.16274e-06
6.60495e-06
-3.41053e-07
-8.42663e-06
-8.56085e-06
9.17598e-06
-9.5541e-06
1.12746e-06
-2.28502e-06
6.6657e-06
7.26679e-06
3.67598e-06
3.23889e-06
6.44129e-06
2.05214e-06
-1.51249e-07
1.1703e-05
-1.15518e-05
7.79161e-06
2.94022e-06
-1.07318e-05
7.64036e-06
-6.54806e-06
2.94872e-06
-6.90968e-06
2.74442e-06
-1.3648e-05
-3.70723e-06
-2.91093e-06
-5.8991e-06
-6.94748e-06
-6.49707e-06
4.03789e-06
-6.95801e-06
-8.11141e-06
-1.86708e-06
-3.59945e-06
-5.64413e-06
-1.36759e-06
1.4137e-06
-8.41228e-06
6.99857e-06
-6.66772e-06
7.33527e-06
-6.67549e-07
-5.25402e-06
8.65869e-06
-4.34623e-06
-4.31246e-06
2.52025e-06
6.13844e-06
-1.11311e-05
6.78486e-06
-6.27842e-06
5.33893e-06
9.39483e-07
2.42225e-06
-8.70067e-06
-2.92348e-06
8.26241e-06
7.34307e-06
-6.40358e-06
-1.01589e-05
9.84893e-06
3.09928e-07
-8.21102e-06
-1.94783e-06
-2.04315e-07
-7.31039e-07
4.43967e-06
-2.79683e-06
8.0774e-06
-1.10425e-06
9.79878e-06
3.25578e-06
3.32118e-06
7.36479e-06
7.1957e-06
8.01268e-06
1.15788e-05
-2.29923e-06
-9.2796e-06
6.8632e-06
-2.35038e-06
-2.90864e-06
-3.72112e-06
-2.78198e-06
-1.21435e-05
9.8443e-06
-7.2784e-06
-3.4939e-06
-3.66562e-06
-1.0722e-05
1.59831e-06
9.12372e-06
-2.08474e-06
2.44288e-06
-7.81523e-06
9.41354e-06
-1.94376e-06
-5.65558e-07
9.9791e-06
3.56024e-06
-8.09205e-06
-8.33921e-06
-3.30514e-06
-3.09919e-06
4.38253e-06
-2.67479e-06
-4.45152e-06
-6.92055e-06
-1.3635e-05
2.5547e-06
-8.30218e-06
7.6428e-06
-7.09349e-06
-1.20419e-05
3.73969e-06
-2.72807e-06
-9.3138e-06
-7.67146e-07
1.3247e-05
-1.24798e-05
-9.75292e-06
-1.22042e-05
-3.89834e-06
8.79548e-06
-6.16027e-06
-3.10146e-06
7.60225e-06
7.24454e-06
3.20682e-06
3.24506e-06
-5.09089e-06