# Probe 0 (0 0.042 0)
# Probe 1 (0 0.052 0)
# Probe 2 (0 0.062 0)
# Probe 3 (0 0.072 0)
#       Probe             0             1             2             3
#        Time
         0.01       7.00154       7.00376        7.0198       10.4186
         0.02       14.0021       14.0046       14.0203       20.5114
         0.03       21.0026       21.0053       21.0235       30.2117
         0.04        28.003       28.0061       28.0326       39.6223
         0.05       35.0034       35.0071       35.0509       48.7885
         0.06       42.0039       42.0087       42.0813       57.7293
         0.07       49.0043       49.0113       49.1256       66.4522
         0.08       56.0048       56.0154       56.1852       74.9602
         0.09       63.0057       63.0216        63.261       83.2567
          0.1        70.007       70.0306       70.3535       91.3481
         0.11        77.009       77.0427       77.4625       99.2452
         0.12       84.0116       84.0586       84.5879       106.964
         0.13       91.0152       91.0788       91.7288       114.522
         0.14       98.0198       98.1035       98.8839       121.943
         0.15       105.026       105.133       106.051       129.246
         0.16       112.033       112.168       113.229       136.452
         0.17       119.042       119.208       120.414       143.578
         0.18       126.052       126.253       127.604       150.637
         0.19       133.065       133.304       134.798       157.642
          0.2       140.079       140.359       141.991       164.599
         0.21       147.095       147.419       149.183       171.517
         0.22       154.114       154.482       156.373       178.399
         0.23       161.134        161.55       163.558       185.248
         0.24       168.157       168.621       170.738       192.068
         0.25       175.181       175.694       177.912       198.859
         0.26       182.208        182.77        185.08       205.624
         0.27       189.236       189.847       192.241       212.361
         0.28       196.266       196.926       199.396       219.072
         0.29       203.298       204.006       206.544       225.758
          0.3       210.332       211.087       213.686       232.417
         0.31       217.367       218.168       220.821       239.051
         0.32       224.404       225.249       227.949       245.659
         0.33       231.441        232.33        235.07       252.241
         0.34        238.48        239.41       242.186       258.797
         0.35        245.52        246.49       249.295       265.326
         0.36       252.561       253.569       256.398        271.83
         0.37       259.603       260.647       263.495       278.306
         0.38       266.646       267.724       270.586       284.756
         0.39       273.689         274.8       277.671       291.179
          0.4       280.733       281.874       284.751       297.575
         0.41       287.777       288.947       291.825       303.944
         0.42       294.821       296.019       298.893       310.286
         0.43       301.866       303.089       305.956       316.601
         0.44       308.911       310.158       313.014       322.889
         0.45       315.957       317.225       320.066       329.149
         0.46       323.002        324.29       327.113       335.382
         0.47       330.047       331.354       334.155       341.587
         0.48       337.093       338.416       341.192       347.766
         0.49       344.138       345.476       348.223       353.917
          0.5       351.183       352.535        355.25        360.04
         0.51       358.228       359.591       362.271       366.136
         0.52       365.273       366.646       369.288       372.206
         0.53       372.318       373.699         376.3       378.247
         0.54       379.362        380.75       383.306       384.262
         0.55       386.406       387.799       390.308        390.25
         0.56       393.449       394.846       397.306       396.212
         0.57       400.492       401.891       404.298       402.146
         0.58       407.534       408.934       411.286       408.054
         0.59       414.576       415.975       418.269       413.936
          0.6       421.618       423.014       425.247       419.791
         0.61       428.658       430.051       432.221       425.621
         0.62       435.699       437.086        439.19       431.425
         0.63       442.738       444.118       446.155       437.204
         0.64       449.777       451.149       453.115       442.957
         0.65       456.815       458.178       460.071       448.686
         0.66       463.852       465.205       467.022        454.39
         0.67       470.889       472.229       473.969        460.07
         0.68       477.925       479.252       480.912       465.726
         0.69        484.96       486.272       487.851       471.358
          0.7       491.994        493.29       494.785       476.971
         0.71       499.027       500.306       501.716       482.564
         0.72        506.06        507.32       508.643       488.139
         0.73       513.091       514.332       515.565       493.696
         0.74       520.122       521.342       522.484       499.235
         0.75       527.152        528.35       529.399       504.756
         0.76        534.18       535.356       536.311       510.261
         0.77       541.208       542.359       543.219       515.749
         0.78       548.235       549.361       550.123       521.223
         0.79       555.261        556.36       557.024       526.683
          0.8       562.285       563.358       563.921       532.129
         0.81       569.309       570.353       570.816       537.564
         0.82       576.332       577.347       577.707       542.986
         0.83       583.354       584.338       584.595       548.399
         0.84       590.374       591.328        591.48       553.802
         0.85       597.394       598.316       598.362       559.196
         0.86       604.412       605.302       605.241       564.583
         0.87        611.43       612.286       612.118       569.963
         0.88       618.446       619.268       618.992       575.338
         0.89       625.462       626.248       625.863       580.707
          0.9       632.476       633.227       632.732       586.073
         0.91       639.489       640.204       639.598       591.436
         0.92       646.501       647.179       646.462       596.798
         0.93       653.512       654.153       653.323       602.159
         0.94       660.522       661.125       660.182       607.519
         0.95       667.531       668.095       667.039       612.881
         0.96       674.539       675.065       673.895       618.245
         0.97       681.546       682.032       680.749       623.612
         0.98       688.551       688.998       687.601       628.983
         0.99       695.556       695.963       694.452       634.358
            1        702.56       702.926       701.301        639.74
