/*--------------------------------*- C++ -*----------------------------------*\
  =========                 |
  \\      /  F ield         | OpenFOAM: The Open Source CFD Toolbox
   \\    /   O peration     | Website:  https://openfoam.org
    \\  /    A nd           | Version:  6
     \\/     M anipulation  |
\*---------------------------------------------------------------------------*/
FoamFile
{
    version     2.0;
    format      ascii;
    class       volScalarField;
    location    "0.1";
    object      p;
}
// * * * * * * * * * * * * * * * * * * * * * * * * * * * * * * * * * * * * * //

dimensions      [0 2 -2 0 0 0 0];

internalField   nonuniform List<scalar> 
127306
(
0.00988233
0.00951051
0.00991998
0.0100176
0.0199916
0.0197914
0.0200508
0.0137259
0.0136592
0.0137324
0.0137731
0.0138867
0.0275233
0.0273511
0.0276184
0.027275
0.0274614
0.0106071
0.0105599
0.010602
0.010703
0.0143558
0.0143426
0.0142436
0.0272644
0.0271783
0.0274427
0.0275472
0.0144916
0.0273547
0.0274635
0.0274644
0.0272513
0.0147895
0.0147627
0.0147243
0.0272473
0.0272114
0.0193807
0.0152269
0.0150376
0.0150098
0.0271661
0.0271656
0.0268037
0.0272296
0.0104232
0.0104813
0.0105915
0.0156244
0.0154755
0.00756571
0.00790581
0.00784856
0.00793028
0.00795206
0.010125
0.0102134
0.010248
0.0156887
0.0157378
0.0155155
0.0162045
0.0160301
0.0159193
0.000326194
0.000399886
0.000756343
0.000436216
0.000623257
0.0164752
0.0161365
0.0161178
0.000222836
0.000185166
0.000173637
-1.36176e-05
0.0194443
0.0192684
0.0194565
0.01645
0.0163597
0.0163372
0.00019622
7.10127e-05
0.000274371
0.00033283
0.0167996
0.0165888
0.0166534
0.000123575
9.44231e-05
0.0169335
0.016795
0.016694
0.000116377
9.2232e-05
0.000244393
-2.06913e-06
0.0100283
0.00998662
0.0100187
0.0181803
0.0168222
0.0168779
0.0111913
0.0111789
0.0112547
0.0114437
0.0179541
0.0177799
0.0182344
0.00865116
0.00817633
0.0183416
0.0183801
0.01852
0.0107214
0.0105284
0.013513
0.0132729
0.0155866
0.0156081
0.0156381
0.0155639
0.0232006
0.0231785
0.0231878
0.0230564
0.0194612
0.0196152
0.0195437
0.0231953
0.023569
0.0233708
0.0181505
0.0182739
0.01836
0.0182829
0.016478
0.016551
0.0165996
0.0165551
0.0147819
0.0147418
0.0149029
0.0148247
0.0155926
0.0157133
0.0231098
0.0231345
0.0134845
0.0136562
0.0133953
0.0134254
0.0134084
0.0136089
0.0134623
0.0155742
0.023672
0.013222
0.0150716
0.0151059
0.0147881
0.0228083
0.022985
0.0145721
0.0237192
0.0117569
0.0115575
0.0144254
0.000129712
0.000277144
9.4512e-05
2.85436e-05
0.0142418
0.000149522
6.71736e-05
0.013981
0.0238589
0.000197814
0.000216296
0.000139635
-8.74236e-07
0.013803
0.0224262
0.0224893
0.0225411
8.38298e-05
0.00016959
0.0272905
0.0272218
0.0268639
0.0272829
0.00982571
0.00977394
0.0100971
0.0270945
0.0273006
0.0240639
0.0241668
0.0239357
0.0272608
0.0275185
0.0273478
0.0271831
0.0133366
0.0125893
0.0131242
0.0224581
0.0222988
0.022337
0.0270335
0.0271125
0.0126482
0.0125074
0.0122931
0.0124236
0.0179563
0.0181994
0.0121641
0.0240598
0.02452
0.024231
0.018109
0.0179818
0.0178882
0.0119924
0.0223952
0.0220369
0.0183568
0.0181952
0.0181701
0.0119809
0.0184083
0.011806
0.0115834
0.0219877
0.011327
0.0111339
0.0247775
0.0104022
0.0218896
0.00988447
0.024724
0.00968907
0.00926403
0.0218568
0.0248744
0.0216242
0.0250391
0.0214338
0.0214712
0.00969239
0.025212
0.00957623
0.0272148
0.0275783
0.0273232
0.0272994
0.027274
0.0214489
0.021367
0.0270798
0.0273316
0.0269305
0.0273598
0.0169893
0.0166904
0.0253211
0.0254256
0.0253522
0.0273126
0.0168737
0.0166402
0.0165022
0.0271475
0.0171622
0.0174574
0.0210729
0.0272807
0.0175141
0.0272513
0.00923951
0.00938379
0.00937283
0.0256012
0.0253181
0.0251918
0.0273316
0.0270235
0.0271299
0.0177843
0.027296
0.0181268
0.0180656
0.0272718
0.0179303
0.0180033
0.0180824
0.0210472
0.0272527
0.025814
0.027156
0.00921621
0.0273215
0.0089814
0.0272109
0.0273467
0.0271419
0.00907614
0.0259851
0.0258956
0.0273525
0.0207293
0.0208582
0.0273593
0.00916188
0.00917992
0.00927292
0.0273632
0.019387
0.0193942
0.01945
0.00921351
0.00914618
0.00903028
0.0273491
0.027182
0.0275297
0.027431
0.0276971
0.0276948
0.0274081
0.0179146
0.018351
0.0182914
0.0258513
0.0259199
0.0257746
0.0274672
0.0205683
0.0204388
0.027237
0.0276666
0.0277415
0.0273912
0.0273357
0.0272418
0.0272435
0.0273539
0.0271431
0.00876126
0.0273445
0.0268763
0.0273842
0.0271202
0.0270607
0.0271837
0.0273681
0.0270585
0.0273491
0.0273947
0.027056
0.0269144
0.0270515
0.00874656
0.00892265
0.0093415
0.0260586
0.0263479
0.0265554
0.0272596
0.020345
0.0202757
0.0185408
0.0185242
0.0269718
0.0270803
0.0270193
0.00838196
0.0272179
0.027368
0.019675
0.0196945
0.0274224
0.0271359
0.00870933
0.00888318
0.0274365
0.0263661
0.0274907
0.0271826
0.0271685
0.0271919
0.0271353
0.0191563
0.0188477
0.0199814
0.0200011
0.0198636
0.0274491
0.00840383
0.00854128
0.0203116
0.0202776
0.0201458
0.00802302
0.0194597
0.00884477
0.0265132
0.0264048
0.0152203
0.0199491
0.00421496
0.00403211
0.00420811
0.00423316
0.00416531
0.00408471
0.00383936
0.00456027
0.00478589
0.0266183
0.00412048
0.00489984
0.00412004
0.00386508
0.00409064
0.00436862
0.00426702
0.00413184
0.00419349
0.00406176
0.00407795
0.00400678
0.00511317
0.00359073
0.00345817
0.00363852
0.00468055
0.00462102
0.00394069
0.00525246
0.00347933
0.00331436
0.00337594
0.00476531
0.00374789
0.0164466
0.00546443
0.00334525
0.00504183
0.0036487
0.00561472
0.00348294
0.00305573
0.00523094
0.00580277
0.0056452
0.00347308
0.00278015
0.00533112
0.00586085
0.00597622
0.00587523
0.0056276
0.0147198
0.00260218
0.00602434
0.00611623
0.00601869
0.00286526
0.00312142
0.00310912
0.0142802
0.0144683
0.0057899
0.0138806
0.014046
0.0136316
0.00249823
0.00615105
0.00625393
0.00617526
0.0026705
0.00291503
0.00277297
0.00589538
0.00235648
0.0166415
0.00637726
0.00655259
0.00673991
0.00282014
0.00217647
0.00631213
0.0159719
0.0158054
0.0155962
0.0159299
0.00656982
0.00666539
0.00655724
0.00258662
0.015468
0.00153279
0.00183649
0.00192101
0.00606462
0.00609849
0.0168569
0.00692001
0.00691651
0.00227917
0.0146322
0.00132955
0.00140325
0.00135157
0.00596013
0.00642607
0.00640187
0.0072317
0.00705378
0.00197382
0.00203212
0.00190138
0.00647393
0.00653952
0.00635371
0.00124285
0.00148313
0.00177966
0.00679793
0.00688699
0.007234
0.00716385
0.0071885
0.00720081
0.00159404
0.0126446
0.0127928
0.00147488
0.00112542
0.00140321
0.00105216
0.00101072
0.000902084
0.00677975
0.00701493
0.00705607
5.69544e-05
2.50291e-06
0.000271084
0.000154288
0.000102408
0.000218402
0.000271981
0.000121388
0.00725434
0.00759179
0.0075528
0.000993225
0.000877304
0.00110032
0.000714775
0.00131516
0.00702763
0.00700488
0.00699064
0.000181524
8.71177e-05
-6.08526e-05
0.000139154
0.000192116
9.54275e-05
0.000271921
7.5057e-05
0.000109811
0.000509579
0.00016028
6.99446e-05
0.000974964
0.000663491
0.0012238
0.0133171
0.0134034
0.000412856
0.0131338
0.0132783
0.0132969
0.00740946
0.00734588
0.0070692
5.48984e-05
0.0133047
0.0127246
0.0127249
0.0129558
0.0127249
0.0127357
0.0125642
0.0126146
0.00756539
0.00789967
0.00790901
-9.71456e-05
0.0162288
0.0161545
0.0158063
0.0161376
0.0157549
0.0157841
0.0158754
0.000606694
0.000111866
0.0153914
0.0157164
0.0156754
0.00012201
5.44124e-05
-1.5006e-05
0.0154451
0.0154098
0.0153219
0.000130166
0.00032699
0.000231077
0.000116988
5.08153e-05
0.0152331
0.0146132
0.0149917
0.000200989
2.42045e-05
0.00772835
0.0076985
0.00778344
0.0121127
0.0122773
0.0073932
0.00754494
0.00746071
0.0146416
0.0147542
0.0146972
0.00747806
0.0140006
0.0143906
0.0145731
0.0141836
0.0142885
0.0142214
0.00806958
0.00813765
0.00792176
0.000522578
0.000321178
0.0139614
0.0140772
0.0141692
8.91834e-05
-5.58514e-05
0.0138976
0.0136323
0.0137827
0.0135004
0.0001908
0.000302711
0.0163359
0.0163195
0.016294
5.69612e-05
0.000129798
0.0121797
0.0121527
0.0120301
0.0165999
5.21851e-05
0.0167929
0.0167464
0.0167971
0.00822975
0.000120261
0.000133002
0.0119841
0.0118247
0.0166365
0.016658
0.0167647
3.87196e-05
0.0170109
0.0171534
0.0169741
0.0179648
0.0180376
0.0233793
0.0232656
0.0231282
0.0231287
0.017344
0.0183354
0.0234356
0.023657
0.0233421
4.16771e-05
0.0232892
0.0232088
0.0182776
0.0238569
0.0230071
0.0239702
0.0228658
0.013698
0.0136691
0.0241437
0.0226923
0.0241831
0.0224854
0.0108726
0.0106159
0.0242221
0.0240981
0.024294
0.0108836
0.0107735
0.0108402
0.0111114
0.0110422
0.010969
0.011188
0.0111616
0.0110362
0.0220422
0.0222227
0.011312
0.0113543
0.0114564
0.0115087
0.0244415
0.0243595
0.0243914
0.0217741
0.0217218
0.02185
0.0137545
0.0137461
0.0136724
0.0138214
0.0138158
0.0139967
0.0140578
0.0140935
0.0246402
0.024511
0.0244503
0.0215861
0.0215083
0.0216723
0.0141529
0.0143289
0.0141344
0.0141333
0.0143094
0.0246348
0.0244937
0.0144173
0.0142646
0.0213626
0.0212988
0.0214544
0.0144327
0.0145986
0.01444
0.0145905
0.0146218
0.0144382
0.0146
0.0145987
0.014691
0.0248964
0.0251408
0.0145967
0.0211142
0.0212679
0.0211628
0.0148987
0.0149813
0.0149972
0.0151415
0.0250942
0.0152651
0.0152237
0.0150017
0.0211132
0.0212023
0.0209692
0.0152812
0.0153965
0.0153139
0.0154009
0.0153466
0.0154499
0.0155602
0.0155626
0.0252094
0.0251856
0.0157024
0.0158468
0.0156756
0.0207402
0.0209881
0.0158726
0.0158383
0.0156791
0.0159338
0.0159826
0.0159972
0.0161358
0.0162851
0.0161217
0.0251252
0.0252382
0.025245
0.0253662
0.0161546
0.0164127
0.0164222
0.0209341
0.0167326
0.0168325
0.0168695
0.0169245
0.0254426
0.025537
0.0255599
0.0169276
0.0169572
0.0170948
0.0207252
0.0208009
0.0170632
0.0170618
0.0169744
0.0170965
0.0172585
0.0172089
0.0173617
0.017249
0.0172345
0.0174857
0.0175574
0.0257617
0.0257465
0.0257834
0.0176734
0.0176055
0.0176883
0.0177943
0.0180086
0.0178419
0.0179418
0.0181294
0.0180256
0.0204212
0.0203163
0.0202155
0.0181634
0.0185984
0.0183725
0.018656
0.0185766
0.0185672
0.0259229
0.0259088
0.0260319
0.0188253
0.0188837
0.0189026
0.0191004
0.0192873
0.0204115
0.0201419
0.0207527
0.0264084
0.0262543
0.0262701
0.0193093
0.0196659
0.0199708
0.0200545
0.0199194
0.0264404
0.0263114
0.0265944
0.0264987
0.000216909
0.000206914
0.000380544
0.000253852
0.000162331
0.000165048
0.000172474
-9.19819e-05
6.09539e-05
4.2203e-05
9.94596e-05
7.13669e-05
0.000186963
0.000209506
0.000126242
0.000104541
8.74267e-05
0.000102884
0.000187755
9.4298e-05
0.000192013
9.92864e-05
0.000180016
0.000199161
0.00022476
0.000189131
0.0150768
0.0153132
0.0155439
0.0151112
0.0155921
0.0157192
0.0152197
0.0153263
0.0154477
0.0155539
0.0155764
0.0156989
0.0159045
0.0154167
0.0155961
0.0157565
0.0158815
0.0154572
0.015404
0.0154158
0.0152781
0.0153776
0.0151297
0.015424
0.0154922
0.015318
0.0156837
0.015735
0.0155927
0.0147187
0.0150524
0.015405
0.0145654
0.0157549
0.0156225
0.015632
0.0157418
0.0156173
0.0155875
0.015411
0.0156282
0.0157599
0.0158581
0.016034
0.0158234
0.0158695
0.0161523
0.0154061
0.0156258
0.0156752
0.0275664
0.0274136
0.0275983
0.0275388
0.027125
0.0266047
0.0274936
0.027452
0.0273719
0.0274166
0.0266431
0.0271646
0.0273787
0.0151316
0.0153863
0.0144707
0.0146445
0.0146564
0.0151338
0.015114
0.0149038
0.0148872
0.014854
0.0146374
0.0145668
0.0148823
0.00788491
0.00776352
0.00796722
0.00832665
0.0079035
0.00835042
0.00813731
0.00818863
0.0162982
0.0162076
0.0163085
0.0162466
0.0157891
0.015686
0.0158197
0.0162967
0.015963
0.0162503
0.0155705
0.0159143
0.0156587
0.0157122
0.0160231
0.010585
0.0105334
0.0103765
0.0105587
0.00825547
0.00806522
0.00820928
0.00830271
0.00811032
0.00809405
0.0165795
0.0165524
0.0275523
0.0274252
0.0167508
0.0176456
0.0173544
0.0179015
0.01789
0.017927
0.0175346
0.0171081
0.0175594
0.0181984
0.0185198
0.0181595
0.0176695
0.0171859
0.0171891
0.0168775
0.0169843
0.0169582
0.0171895
0.0170518
0.0171058
0.0172877
0.0171564
0.017071
0.01715
0.0177028
0.0177887
0.0176511
0.0171103
0.0169831
0.016822
0.0168536
0.0170388
0.0254583
0.0255615
0.0255658
0.0255446
0.00114675
0.00151938
0.00130348
6.25762e-06
2.81276e-05
0.000413938
0.000410348
6.48325e-05
0.000479743
0.000455383
0.000836573
0.0169162
0.0168518
0.01695
0.0168349
0.0165422
0.0166379
0.0169627
0.0168829
0.0169004
0.0168377
0.0166675
0.0168746
0.000816959
0.000642455
0.000787477
0.00057956
0.0262854
0.0264247
0.0262552
0.0262501
0.010822
0.0106714
0.0107201
0.0109385
0.0106701
0.0107318
0.010517
0.0105372
0.0103735
0.0149239
0.0147614
0.0145695
0.0148661
0.0143485
0.0147571
0.0144892
0.0145412
0.013059
0.0129354
0.0131291
0.0131724
0.0130964
0.0130124
0.0132392
0.0130383
0.0139736
0.0142372
0.0137883
0.0154959
0.0155227
0.0154709
0.0153709
0.015321
0.0151865
0.0155578
0.0119667
0.0121533
0.0119396
0.0273691
0.027234
0.0265549
0.0269467
0.0272615
0.0272849
0.027074
0.0273326
0.000148906
1.42988e-05
0.00018241
0.000136938
0.00026504
0.000306233
0.000310014
0.000272755
0.00020603
0.0162765
0.0162081
0.0163732
0.00842707
0.00846201
0.00860078
0.0155152
0.0154534
0.0156505
0.000393416
5.10934e-05
0.000101797
8.25443e-05
0.000183801
0.000375337
0.000404984
0.000507297
9.75736e-05
0.00940436
0.00904614
0.0092486
0.00940131
0.0144377
0.0145666
0.014705
0.0145834
0.0140015
0.0136723
0.0137739
0.0142069
0.0137558
0.0273287
0.0264829
0.0262389
0.0268271
0.0272273
0.0272471
0.0274452
0.027466
0.0277344
0.0161991
0.0164132
0.0164028
0.0164308
0.0163016
0.00833061
0.00798029
0.00804552
0.0080856
0.00837736
0.0079974
0.0274523
0.0273468
0.0169102
0.016894
0.0167864
0.016756
0.0118119
0.0119677
0.0116603
0.0120295
0.0253223
0.0254513
0.0253496
0.0255545
0.02535
0.0102881
0.0104436
0.0103979
0.0105022
0.0276154
0.027294
0.027138
0.0117165
0.0121574
0.0118826
0.000136622
7.38906e-05
0.000113413
0.000211017
1.52939e-05
0.000164226
0.000221875
0.000268023
0.0187402
0.0186191
0.0186543
0.0190342
0.0188839
0.0188816
0.0139534
0.0137846
0.0138582
0.0138619
0.0149549
0.0150349
0.0152861
0.0276017
0.0273906
0.027255
0.027389
0.0273439
0.000351206
0.000486418
0.000128477
0.000538527
0.000105798
0.000474837
0.0088762
0.00912127
0.00902568
0.00918112
0.00920852
5.62658e-05
4.23232e-05
0.000358962
3.62713e-05
0.000223047
0.000181479
0.000244508
0.000445201
0.000395869
0.000329173
0.000464273
3.86305e-05
0.000187112
0.000406106
0.000318833
0.0275062
0.0274079
0.027273
0.0274385
0.0271286
0.0270926
0.0274383
0.0266639
0.0265729
0.0266027
0.0267088
0.0273538
0.0274533
0.0270764
0.0273663
0.0267882
0.027056
0.027357
0.0269675
0.0272312
0.0272606
0.0273832
0.0271935
0.0274347
0.0273231
0.0269629
0.0267421
0.0267885
0.0266118
0.027497
0.0266745
0.00045577
6.00078e-05
0.000320678
0.00026003
0.000335423
3.60234e-05
7.69405e-05
0.000181959
0.000221912
0.000187329
0.000473246
0.000378565
0.000494219
0.000298716
0.000121902
4.13059e-05
0.0101404
0.0101601
0.0191886
0.0190283
0.0191818
0.0196147
0.019055
0.0194722
0.0191043
0.018813
0.0190194
0.0190999
0.0134189
0.0134128
0.0134874
0.0131685
0.0130642
0.0132654
0.0131286
0.00846637
0.00853824
0.00864063
0.00118773
0.00103922
0.00128876
0.00117209
0.00156877
6.49736e-05
0.000178173
0.0272178
0.0272076
0.0273902
0.0170499
0.0169239
0.0168315
0.0167138
0.0166654
0.00855426
0.00847334
0.00839347
0.0195932
0.0197248
0.0200271
0.00775155
0.00749436
0.00782023
0.00784467
0.00797433
0.00818097
0.0199132
0.0199296
0.0198535
0.0198749
0.0200228
0.0199947
0.0102876
0.0101681
0.010303
0.0276046
0.0274649
0.0274586
0.0274773
0.00844626
0.00855935
0.0082895
0.0084324
0.00846705
0.00819543
0.00841473
0.019541
0.019251
0.0197462
0.0195935
0.0193535
0.0197339
0.0199445
0.0194874
0.0195296
0.0194829
0.0194493
0.0196511
0.0197007
0.00798498
0.00802018
0.00811086
0.000135334
0.000128006
0.0131281
0.0132353
0.0132463
0.0134258
0.0132212
0.0119057
0.0120696
0.0122991
0.0121196
0.0120465
0.0142294
0.0142735
0.0138328
0.00786173
0.00794385
0.000657512
0.000729182
0.00067314
0.000586837
0.0198925
0.019843
0.0198832
0.00783538
0.00761555
0.00771936
0.0116794
0.0117665
0.0119649
0.0180595
0.0181227
0.0181205
0.0200786
0.0199529
0.0200244
0.0150139
0.0151194
0.0152959
0.0273612
0.0273528
0.0275428
0.0102766
0.0104402
0.0103094
0.0102942
0.0160079
0.0159476
0.0159062
0.0161764
0.0164341
0.0162392
0.0158622
0.0166388
0.0161874
0.0159576
0.0161068
0.0161573
0.0160922
0.0162452
0.0161957
0.0161672
0.0166068
0.0165961
0.0164704
0.0162964
0.0164204
0.0164846
0.0160756
0.0161393
0.0161322
0.0262636
0.0263935
0.0263193
0.017116
0.0169635
0.0169318
0.00844518
0.00884158
0.00895972
0.00875415
0.00865221
0.00850871
0.00855389
0.00855639
0.00853872
0.00826695
0.00852305
0.00837491
0.00835596
0.00852909
0.00844187
0.0273444
0.02719
0.0274809
0.0276815
0.0272853
0.0274837
0.0130668
0.0130908
0.0131733
0.0131421
0.0131647
5.96998e-05
2.39212e-05
0.000144577
0.000462125
0.00945319
0.00914283
0.00932146
0.0184328
0.0185685
0.0187335
0.0184986
0.0128205
0.012544
0.0126089
0.0127539
0.0147442
0.0146
0.0145021
0.01828
0.0180685
0.0179665
0.0181167
0.0136318
0.0135831
0.0136568
0.0137499
0.000161077
0.000192429
0.0175654
0.0174754
0.0174905
0.0129734
0.0131638
0.0132475
0.00183197
0.00208698
0.00202519
0.022877
0.0228288
0.0229709
0.0272925
0.0274594
0.0273527
0.027748
0.0108323
0.0109071
0.0105899
0.0105427
0.0103239
0.0104958
0.0105358
0.0105603
0.0181755
0.0182901
0.0180979
0.01086
0.0110279
0.0109623
0.0106134
0.0109998
0.0236244
0.0236992
0.0237921
0.0274878
0.0273352
0.0272516
0.0133878
0.0133061
0.0133906
0.0131732
0.0131926
0.0225904
0.0226938
0.0227543
0.00372332
0.00390911
0.00380888
0.019691
0.01981
0.0197696
0.00451246
0.00461866
0.00473484
0.026831
0.0273723
0.027331
0.0272717
0.0265218
0.0269601
0.0275941
0.00363271
0.00361368
0.0036845
0.0273428
0.0268285
0.0274851
0.0272996
0.027233
0.0272584
0.0235981
0.0238167
0.0237282
0.00381859
0.00369644
0.00419159
0.0194907
0.019574
0.00676745
0.00680377
0.00695171
0.00721738
0.0189907
0.0191124
0.0191064
0.0191367
0.018839
0.0188609
0.0185864
0.0187529
0.0204376
0.0205711
0.0204279
0.0114861
0.0113766
0.0110733
0.0113018
0.0173581
0.0171987
0.0271886
0.027147
0.0169847
0.0167464
0.0169184
0.0169542
0.0164809
0.0167586
0.0166718
0.0163753
0.0162527
0.0162408
0.0162996
0.0159896
0.0161526
0.0160463
0.0158002
0.0156073
0.0155518
0.0157293
0.000361423
0.000258661
1.11993e-05
0.000141595
0.000121288
0.000208923
-9.57922e-05
0.0121406
0.0122583
0.012122
0.0119836
0.0121461
0.0141476
0.014218
0.0142498
0.0139433
0.0167327
0.0167507
0.016924
0.0168388
0.0168404
0.0188489
0.018836
0.00169525
0.00163038
0.00181266
0.00695627
0.00705403
0.00741472
0.0253343
0.0254238
0.0252233
0.0186156
0.0183679
0.018859
0.0183198
0.0182679
0.0184658
0.0138732
0.0139151
0.0138615
0.0136886
0.0136709
0.0133316
0.0131881
0.0131545
0.0130691
0.0130413
0.013063
0.00927204
0.0092751
0.00935568
0.0199323
0.0201258
0.020041
0.0198837
0.0198569
0.019946
0.0197295
0.0195849
0.0198893
0.0196474
0.0197061
0.0199137
0.0198602
0.0161132
0.0162336
0.016214
0.016031
0.008531
0.00897769
0.0092108
0.000414904
0.000547377
0.000369249
0.000452452
0.000534516
0.000522411
0.000673088
0.00058069
0.0004969
0.01893
0.0187872
0.0186334
0.0262909
0.0262029
0.0261949
0.0262601
0.0261575
0.0266509
0.0272823
0.0269231
0.0263533
0.000240543
0.000360382
0.000545045
0.000152346
0.000518509
0.000120264
8.47533e-05
0.0190014
0.0187226
0.0187283
0.0188963
0.0189491
0.0187863
0.0139341
0.0139036
0.013715
0.0157387
0.0157627
0.0159862
0.00953306
0.00960455
0.00949231
0.0124631
0.0127365
0.012611
0.012589
0.0127537
0.0124309
0.00794918
0.00790903
0.00762525
0.0262922
0.0262182
0.0264309
0.0182556
0.0183129
0.0180275
0.0180365
0.00903517
0.00880958
0.0090052
-3.59041e-05
9.7019e-05
0.00021825
0.0167947
0.0169534
0.0260509
0.0259561
0.0257687
0.0261168
0.0128417
0.0129006
0.0128519
0.0152755
0.0155536
0.0154646
0.015358
0.0154949
0.00992087
0.0101692
0.00987
0.0104883
0.010017
0.0113093
0.0111773
0.0109199
0.0164859
0.0164763
0.016377
0.0163238
0.0012496
0.000569056
0.00100762
0.0116999
0.0118979
0.0118255
0.0132573
0.0132558
0.0132471
0.0261851
0.026408
0.0264467
0.00381527
0.00382373
0.00369597
0.00349255
0.00351418
0.0119778
0.0118015
0.012119
0.00132727
0.000850156
0.00124054
0.0232172
0.0232433
0.0231086
0.0231553
0.025562
0.0259372
0.0255925
0.0261972
0.0167027
0.0166364
0.0164624
0.0165227
0.00415777
0.00431745
0.00441774
0.00443939
0.0168519
0.017192
0.0168683
-1.95246e-05
0.000186685
0.000179358
0.00022585
0.00447875
0.00420069
0.0044777
0.0234753
0.0234283
0.0235043
0.0233445
0.0235628
0.0233736
0.0231607
0.0231519
0.0233493
0.0230766
0.0149495
0.0149574
0.0149994
0.0230582
0.0231836
0.0230648
0.0228502
0.00388345
0.00419016
0.00440856
0.00410611
0.00423472
0.00414934
0.00416528
0.0100984
0.0100177
0.00994932
0.0105333
0.0105274
0.0103694
0.0232106
0.0234218
0.0233358
0.0231085
0.0234092
0.0236077
0.0235413
0.0233373
0.01171
0.0117524
0.0118032
0.00463266
0.00448479
0.00434992
0.00445761
0.00435338
0.0043838
0.00431662
0.00435792
0.00458918
0.00421682
0.0135577
0.0135402
0.01357
0.0148295
0.0148697
0.0150045
0.0149054
0.000709276
0.00119985
0.000962269
0.0016367
0.0103202
0.0098605
0.0101327
0.0102098
0.0131791
0.0131689
0.0131363
0.01321
0.0131658
0.0130299
0.0130571
0.0152687
0.0156466
0.0152889
0.0155636
0.0154574
0.0123836
0.0121173
0.0120685
0.0122555
0.0170011
0.0169296
0.0170857
0.0121841
0.0124973
0.0123014
0.0124313
0.0122401
0.0255524
0.0256357
0.0253591
0.0254329
0.0203495
0.0207248
0.0208086
0.0207423
0.0207346
0.014259
0.0140949
0.0139969
0.025487
0.0255157
0.0250364
0.0254059
3.67674e-05
0.000109751
0.00021091
0.000279576
9.18119e-05
0.000347709
0.000551173
0.000521635
0.000588204
0.00937707
0.00949129
0.00947146
0.00125501
0.00119404
0.00126375
0.0121312
0.0122561
0.0124265
0.00905776
0.00901199
0.00920305
0.00930706
0.00926583
0.0205297
0.0208307
0.0204442
0.000161613
0.000177578
7.45347e-05
0.00228514
0.00230128
0.00190871
0.00212539
0.0121536
0.0120545
0.0116292
0.0120864
0.0119948
0.00788905
0.00767596
0.00813967
0.00850721
0.00872917
0.00814628
0.0084402
0.00772725
0.00793593
0.00770492
0.00813888
0.00786425
0.0145488
0.0144879
0.0143897
0.0145705
0.0146585
0.0146275
0.0151507
0.0148621
0.0144805
0.0149287
0.0149809
0.0148267
0.0145631
0.0145956
0.0144382
0.0146282
0.014432
0.0145689
0.0144684
0.0267615
0.026573
0.0262549
0.00221358
0.0021598
0.00204222
0.00159693
0.00190825
0.0188085
0.0188764
0.0189522
0.0118839
0.0116622
0.0120953
0.0252985
0.025151
0.0253721
0.0248863
0.0205791
0.020418
0.0199814
0.0258906
0.0258337
0.0256588
0.026199
0.000611022
0.00049049
0.000862146
0.0199949
0.0201105
0.0202239
0.00737986
0.00729869
0.00721932
0.0071737
0.00717217
0.0079967
0.00798005
0.00768171
0.0272751
0.0273037
0.00766425
0.0075805
0.0202529
0.0202612
0.0200726
0.0254424
0.0252578
0.0254124
0.0253482
0.0254358
0.000470953
0.000490564
0.00043101
0.000581596
0.0143601
0.0144922
0.0145719
0.0146291
0.0144365
0.0144867
0.01419
0.00766034
0.00777846
0.00762717
0.00788515
0.00784824
0.0076261
0.0198144
0.0203203
0.0203485
0.0202629
0.0200383
0.0198436
0.00732943
0.00750588
0.00764036
0.0261307
0.0262084
0.0264567
0.02653
0.026638
0.0265826
0.000553313
0.000491793
0.000466575
0.00053441
0.000731447
0.0171952
0.0173089
0.0172599
0.0173125
0.0171788
0.0201334
0.0203344
0.0202392
0.020295
0.0204062
0.0201649
0.0122438
0.0121156
0.012038
0.01236
0.0123117
0.0121536
0.00748079
0.00768277
0.00787854
0.00747337
0.00715282
0.0200517
0.0198972
0.0198926
0.0200521
0.00694014
0.00750528
0.00742051
0.00762684
0.00720528
0.00772329
0.00736484
0.00728617
0.000818822
0.000759487
0.000819743
0.000964477
0.000604077
0.000758811
0.000847115
0.00074067
0.000896692
0.000576891
0.00101567
0.0266201
0.0272817
0.0264291
0.0269213
0.0265488
0.0182988
0.0183719
0.0184106
0.0265682
0.0263915
0.0265985
0.0262953
0.0265379
0.0261437
0.0254957
0.0255404
0.0255254
0.00703583
0.00699742
0.00711612
0.0204168
0.020746
0.020783
0.0206218
0.00693789
0.00722125
0.00706281
0.000282862
0.000500127
0.000426825
0.000295138
0.000525285
0.0185709
0.0183016
0.0184771
0.0182131
0.0257123
0.0255888
0.0256855
0.0116719
0.0119758
0.00209002
0.00201017
0.00197821
0.0138329
0.0137543
0.0140631
0.0141015
0.0141815
0.0138575
0.0140294
0.0254768
0.0252037
0.025544
0.0254069
0.0251645
0.027312
0.027324
0.0272309
0.00857751
0.00854344
0.00859822
0.00761796
0.0076873
0.00769438
0.0133709
0.013353
0.0132697
0.0133343
0.0133967
0.0132903
0.0133134
0.0131883
0.0205296
0.0202051
0.0206095
0.000744543
0.000961019
0.000981385
0.0258965
0.0256018
0.0255095
0.025753
0.0203573
0.020243
0.0173136
0.0174863
0.0171787
0.0172147
0.0260727
0.0260502
0.0262672
0.0130318
0.0130047
0.0130744
0.0207996
0.0207265
0.0210071
0.0210122
0.00763798
0.00757754
0.0195377
0.0194411
0.00767798
0.00819494
0.00853487
0.00824932
0.0154858
0.0158003
0.0156111
0.0155366
0.0150492
0.0157627
0.0162932
0.0165433
0.0166409
0.0166596
0.0166311
0.0165994
0.0167433
0.0167323
0.0162735
0.0166277
0.0162852
0.0162814
0.0165655
0.000830121
0.000948747
0.000925493
0.0261464
0.0265155
0.026332
0.0108721
0.0108774
0.010569
0.010861
0.0119268
0.0117807
0.0116248
0.0114868
0.0117841
0.014291
0.014039
0.0139814
0.0261003
0.0260673
0.0261612
0.00104277
0.000810906
0.000562254
0.0262095
0.0260458
0.0263631
0.0262854
0.0192903
0.0191593
0.0192068
0.0257194
0.0261415
0.0260423
0.0116096
0.0116487
0.0119409
0.0119183
0.0122556
0.0118492
0.0123793
0.0121951
0.0125032
0.0180399
0.0182857
0.0179408
0.012813
0.0127652
0.0128179
0.0126824
0.0146843
0.014461
0.0146042
0.0141367
0.014772
0.0147508
0.0146179
0.00184661
0.00185152
0.00195852
0.0206103
0.0206814
0.0207116
0.0167472
0.0171108
0.0171069
0.0172074
0.0171957
0.0167189
0.0169114
0.00067392
0.0005384
0.000921164
0.000785927
0.0252549
0.0253717
0.025272
0.0101737
0.0103339
0.00981955
0.00161552
0.0018248
0.00194719
0.00192404
0.00194115
0.00193482
0.00188729
0.0019783
0.00166524
0.00136909
0.00140223
0.00143644
0.00138128
0.0175241
0.0176027
0.0173663
0.0172099
0.026036
0.0257645
0.0136338
0.0137021
0.013636
0.013441
0.0156551
0.0159151
0.0156077
0.0157249
0.0160671
0.0159082
0.0160248
0.016297
0.0159994
0.0189334
0.018663
0.0188245
0.0185555
0.0023614
0.00247665
0.0015915
0.00155342
0.00137816
0.0159893
0.0160709
0.0162253
0.0160733
0.0160996
0.00959011
0.00941826
0.00978822
0.00961205
0.00980802
0.00134618
0.00136319
0.00121791
0.0188531
0.0187089
0.018354
0.0185222
0.0187721
0.0106337
0.0105816
0.0105959
0.0105701
0.0106767
0.0105962
0.0262081
0.0267504
0.0265025
0.026538
0.0262538
0.00715772
0.00668831
0.00709286
0.00706655
0.000779683
0.0010751
0.000848685
0.00100584
0.000855329
0.0208889
0.0206725
0.0207781
0.0208035
0.0146993
0.0147124
0.0146799
0.0162639
0.016581
0.0163936
0.0274096
0.0269183
0.027201
0.0271814
0.026789
0.0263091
0.026216
0.0262864
0.0264771
0.0263772
0.0266808
0.0266998
0.0271805
0.0273067
0.0271034
0.0149717
0.01489
0.015135
0.0148796
0.00662265
0.00711059
0.00727956
0.00713654
0.0261026
0.0260558
0.0261392
0.0145087
0.0147448
0.0146057
0.0144463
0.0147294
0.0147555
0.0147291
0.000652176
0.000621388
0.000655122
0.000330168
0.000277179
0.000336043
0.000161834
0.00013654
0.000292828
0.000262899
0.000117189
0.000104434
0.000269928
0.000374915
0.000329792
0.0142471
0.0142725
0.0142322
0.0140269
0.0142455
0.0142689
0.0140948
0.0141995
0.000604767
0.000301822
0.000127773
0.000113912
0.000100662
4.15171e-05
0.000118345
0.000498756
0.00041046
0.000551051
7.57052e-05
0.0153982
0.0153877
0.0153056
0.0152396
0.0150228
0.00888798
0.00856506
0.00896832
0.00861658
0.00880914
0.00833173
0.0231812
0.023102
0.022967
0.0229332
0.0258868
0.0259678
0.0258643
0.0138528
0.0138702
0.0138643
0.0137961
0.0163155
0.0166006
0.0164332
0.0165882
0.0164629
0.0162833
0.00222552
0.00204361
0.00239612
0.00217198
0.002257
0.00244691
0.00242915
0.0233417
0.0231808
0.02314
0.0144681
0.0141348
0.0142992
0.0141462
0.0143769
0.0142916
0.0152608
0.0148606
0.014626
0.0143705
0.0143776
0.0144175
0.0145594
0.0148914
0.0144826
0.0206702
0.0209058
0.0206427
0.0118308
0.0117224
0.0162672
0.0163235
0.0162347
0.0162468
0.0163916
0.0161974
0.0119084
0.0122398
0.0120233
0.0120366
0.0122319
0.0122062
0.0119771
0.00126424
0.00127097
0.00135767
0.0124199
0.0125273
0.0126086
0.0125528
0.0105352
0.0104131
0.0267573
0.0274916
0.027276
0.0273844
0.0269277
0.0273925
0.0273769
0.0272694
0.0269941
0.0266238
0.0262994
0.0231816
0.023213
0.0231771
0.0170515
0.017115
0.0168826
0.0169964
0.00900764
0.00844158
0.00810293
0.00864887
0.0093994
0.00947366
0.00980335
0.00972655
0.0272693
0.027413
0.0273758
0.0268049
0.0273672
0.0271776
0.020802
0.0204665
0.0207578
0.0207512
0.000334171
0.000213264
0.000236558
5.22409e-05
0.000257823
0.000237648
-2.60615e-05
0.00431949
0.00420626
0.0042548
0.0118179
0.0118036
0.0118116
0.011846
0.0133805
0.0134719
0.0132526
0.00665155
0.00707401
0.00688273
0.00662541
0.0233257
0.0233251
0.0234615
0.00709496
0.00733962
0.00703295
0.00723593
0.00410583
0.00401071
0.00369076
0.00384495
0.00756642
0.0078215
0.00789377
0.00765436
0.0075277
0.000593072
0.000763642
0.000578979
0.000772833
0.000630862
0.000328787
0.0199559
0.0200261
0.0199345
0.0201893
0.0201689
0.0197848
0.000900174
0.00123962
0.00111308
0.00875346
0.00930014
0.00970337
0.00925451
0.00605632
0.00643742
0.00635893
0.0064408
0.0142055
0.0144425
0.0144395
0.0144689
0.0145483
0.0131499
0.0131918
0.0131691
0.0133165
0.013062
0.0131768
0.00444004
0.00391198
0.00457321
0.00431354
0.00789343
0.00781562
0.00772756
0.00762889
0.00720557
0.00727133
0.0043257
0.00455625
0.00442936
0.0230407
0.0230715
0.0231437
0.0169199
0.0166936
0.000169912
-0.000108351
0.000249427
0.000129808
0.0143549
0.0145696
0.0146879
0.00642832
0.00645442
0.00626404
0.00631628
0.0128978
0.0128287
0.0125685
0.0127972
0.0125755
0.0124471
0.0123139
0.0125242
0.0125193
0.0122293
0.0211592
0.0212669
0.0213138
0.0209828
0.0181533
0.0183238
0.018115
0.0182103
0.0182347
0.0181525
0.0182022
0.0184222
0.0182983
0.00176094
0.00200455
0.00173838
0.00187765
0.0139014
0.013848
0.0136638
0.0138193
0.0139065
0.0079246
0.00817447
0.00773551
0.00813768
0.00822178
0.00756718
0.00778542
0.00733266
0.00716328
0.00769535
0.0177486
0.0175215
0.0177416
0.0176864
0.0178474
0.0177179
0.000226391
4.16088e-05
2.72829e-05
0.000200811
0.000234979
0.000163344
0.000270619
0.00179663
0.00166212
0.00171025
0.0253407
0.0256699
0.0254858
0.0256017
0.0257132
0.0257063
0.0255165
0.0261094
0.0258772
0.025747
0.025636
0.0188897
0.0189521