/*--------------------------------*- C++ -*----------------------------------*\
  =========                 |
  \\      /  F ield         | OpenFOAM: The Open Source CFD Toolbox
   \\    /   O peration     | Website:  https://openfoam.org
    \\  /    A nd           | Version:  6
     \\/     M anipulation  |
\*---------------------------------------------------------------------------*/
FoamFile
{
    version     2.0;
    format      ascii;
    class       surfaceScalarField;
    location    "0.1";
    object      phi;
}
// * * * * * * * * * * * * * * * * * * * * * * * * * * * * * * * * * * * * * //

dimensions      [0 3 -1 0 0 0 0];

internalField   nonuniform List<scalar> 
245676
(
1.36676e-05
-1.48019e-05
1.13425e-06
1.36676e-05
-1.43588e-05
-4.43111e-07
-1.43588e-05
8.92915e-06
-8.92915e-06
-8.57926e-06
-4.63083e-06
1.32101e-05
-8.57926e-06
1.221e-05
-1.05374e-05
-1.67268e-06
1.221e-05
1.13424e-05
-1.13424e-05
8.05064e-07
-1.08963e-05
1.08963e-05
6.2691e-06
1.19363e-06
7.54544e-06
2.93479e-06
1.27136e-06
-7.63791e-08
6.14763e-06
8.8168e-06
6.19272e-06
1.12058e-05
-1.07572e-05
-4.48542e-07
-1.09998e-05
1.10009e-05
-1.06664e-09
-1.12058e-05
2.0597e-07
1.1095e-05
-1.1095e-05
1.05539e-05
5.41054e-07
-3.4239e-07
-8.51327e-06
-5.45649e-06
1.39698e-05
5.55907e-06
4.85153e-06
8.18552e-06
1.36772e-05
-1.16368e-05
1.16368e-05
3.59454e-06
7.2144e-06
5.05747e-06
8.49795e-06
8.91236e-06
3.75747e-06
1.39698e-05
1.18464e-05
-1.18464e-05
1.14411e-05
4.05349e-07
-1.95737e-07
6.09491e-06
7.84464e-06
4.64404e-06
8.55376e-06
9.61502e-06
-9.61502e-06
1.21592e-05
-1.21592e-05
1.18613e-05
2.97907e-07
1.48467e-08
6.65208e-06
2.97397e-06
7.65818e-06
-7.08914e-06
6.08304e-06
7.65818e-06
3.08766e-06
-1.07655e-05
1.06206e-05
1.44845e-07
-1.10009e-05
2.35424e-07
1.10548e-05
-1.10548e-05
-4.93062e-08
1.11041e-05
-1.558e-05
1.08103e-05
4.7697e-06
1.69408e-05
-1.01738e-05
-6.76699e-06
1.36074e-06
-1.01738e-05
1.08103e-05
-1.05658e-05
1.10155e-05
-4.49756e-07
-1.06206e-05
5.48319e-08
1.04517e-05
-1.04517e-05
1.11506e-05
-6.98876e-07
9.57969e-08
1.03696e-05
-1.03696e-05
1.07061e-05
-3.36561e-07
2.54461e-07
-5.28073e-06
-3.3466e-06
-7.68099e-06
-2.5504e-06
-5.56876e-08
-7.62531e-06
-9.49893e-07
-7.20308e-06
-6.23063e-06
1.06068e-05
-1.06068e-05
1.03032e-05
3.03564e-07
-6.63936e-08
-8.46969e-06
-7.35957e-06
6.81754e-06
-1.52872e-05
-6.60596e-06
-8.06013e-06
-1.38507e-05
-1.06554e-05
1.06554e-05
1.03182e-05
-1.18721e-05
1.55391e-06
-3.37189e-07
1.00721e-05
-1.00721e-05
9.89681e-06
1.75242e-07
-7.0994e-07
-5.33683e-06
-6.13201e-06
-5.4711e-06
-9.81613e-06
8.7293e-06
-1.42004e-05
-5.43454e-06
1.21217e-05
-1.21217e-05
9.86224e-06
2.25942e-06
-2.09813e-07
-9.38232e-06
-6.07322e-06
-5.2226e-06
-7.57429e-06
1.4019e-05
-1.4019e-05
1.22269e-05
1.79207e-06
1.05274e-07
-7.00679e-06
-2.88007e-06
7.64581e-06
-7.64581e-06
7.3816e-06
-6.74258e-06
-2.78917e-06
-1.07482e-05
1.21407e-05
-1.39257e-06
-1.10155e-05
2.67369e-07
7.14288e-06
-7.14288e-06
8.26202e-06
-1.11914e-06
-5.75699e-06
-1.51415e-05
1.11567e-05
3.98483e-06
-1.59981e-05
8.56605e-07
-1.59981e-05
1.11567e-05
8.66838e-06
-5.56376e-06
1.22978e-05
1.27715e-05
-4.10313e-06
7.82273e-06
-8.07846e-06
8.07846e-06
9.21248e-06
-9.21248e-06
-3.7059e-06
1.15286e-05
3.59952e-06
8.35934e-06
1.33887e-05
-1.50533e-05
1.50533e-05
1.67421e-05
-1.67421e-05
-1.42813e-05
1.42813e-05
1.43474e-05
-1.43474e-05
1.40012e-05
-1.14497e-05
-2.55152e-06
1.40012e-05
-1.29087e-05
1.4591e-06
-1.29087e-05
1.14036e-05
-1.08426e-05
-5.60934e-07
1.16444e-05
-2.40821e-07
1.16444e-05
1.18432e-05
-1.98782e-07
-9.37407e-06
1.54944e-05
-6.12032e-06
1.161e-05
-1.161e-05
-9.37407e-06
-1.08426e-05
1.08913e-05
-1.23372e-05
1.44593e-06
4.8684e-08
1.02798e-05
-1.05188e-05
2.39017e-07
1.02798e-05
1.08131e-05
-1.08131e-05
2.94284e-07
1.04424e-05
-1.01101e-05
-3.32266e-07
1.04424e-05
1.01433e-05
-1.01433e-05
3.31952e-08
1.00904e-05
-1.00736e-05
-1.67644e-08
1.00904e-05
1.04414e-05
-1.04414e-05
3.67766e-07
1.40562e-05
-1.26043e-05
-1.45188e-06
1.40562e-05
-1.15919e-05
1.15919e-05
2.51226e-07
-5.48458e-06
8.72982e-07
4.6116e-06
-7.97954e-06
2.49496e-06
-1.09957e-05
1.18687e-05
-1.25696e-05
1.57391e-06
-9.71458e-06
-2.85503e-06
-7.97954e-06
-9.71458e-06
-1.44807e-05
1.44807e-05
-1.23372e-05
8.16159e-06
3.70709e-06
-1.42858e-05
1.42858e-05
1.45157e-05
-1.45157e-05
1.44829e-05
-1.44829e-05
-1.24965e-05
1.22972e-05
1.99363e-07
-1.24965e-05
-1.44368e-05
1.44368e-05
1.21424e-05
-1.21424e-05
1.46317e-05
-1.14501e-05
-3.18159e-06
-1.36639e-06
1.43909e-05
-1.43909e-05
-6.95817e-06
-2.90865e-06
-7.59014e-06
7.36149e-06
-6.72952e-06
-7.59014e-06
-2.80066e-06
1.4383e-05
-1.4383e-05
-9.61725e-06
-6.06349e-06
-5.40337e-06
-7.30161e-06
-1.44744e-05
1.44744e-05
1.19206e-05
-1.19206e-05
-5.70011e-06
-5.90165e-06
-6.93326e-06
-7.26303e-06
5.97563e-06
-1.29089e-05
-9.74592e-06
-1.43166e-05
1.43166e-05
1.14423e-05
8.54895e-07
-1.14423e-05
1.15162e-05
-7.38619e-08
-7.34256e-06
-6.42962e-06
-7.56655e-06
-8.24628e-06
6.75163e-06
2.87183e-06
7.61831e-06
-7.11219e-06
6.24551e-06
7.61831e-06
3.05539e-06
-1.16369e-05
1.04754e-05
1.16154e-06
-1.21407e-05
5.03811e-07
4.99355e-06
8.12023e-06
6.28589e-06
7.59181e-06
1.18929e-05
-1.21748e-05
2.81821e-07
1.19267e-05
-3.37571e-08
1.19267e-05
7.6543e-06
4.9409e-06
4.76414e-06
-3.18507e-06
8.30615e-06
1.24184e-05
7.60453e-06
1.56485e-05
-1.56485e-05
-1.40554e-05
1.43966e-05
-3.4123e-07
1.59315e-06
1.12832e-05
2.32989e-07
-1.12832e-05
1.1143e-05
1.40139e-07
7.23999e-06
6.94165e-06
4.48476e-06
1.02602e-05
-1.3819e-05
1.40945e-05
-2.75479e-07
-1.43966e-05
5.77604e-07
1.40945e-05
5.16196e-06
4.51165e-06
8.68421e-06
-3.52224e-06
1.44004e-05
-1.44004e-05
-1.21748e-05
1.23227e-05
-1.34654e-05
1.14268e-06
1.47913e-07
4.35232e-06
5.19805e-06
-3.24663e-06
7.59896e-06
6.30375e-06
1.41063e-05
-1.41063e-05
1.18326e-05
-6.89552e-07
1.18326e-05
3.3746e-06
6.42099e-06
-6.89383e-06
1.02684e-05
2.77988e-06
1.4783e-05
-1.4783e-05
1.21646e-06
1.47615e-05
-1.47615e-05
1.49569e-05
-1.49569e-05
-1.2002e-05
1.2002e-05
-1.52088e-05
1.52088e-05
-1.53187e-05
1.53187e-05
-1.34654e-05
1.58252e-05
9.16835e-07
-1.18474e-05
1.18474e-05
1.46643e-06
1.2341e-05
-1.2341e-05
1.33648e-05
-1.33648e-05
1.41977e-05
-1.41977e-05
-1.16896e-05
1.16896e-05
1.22253e-05
-1.22253e-05
-1.18385e-05
1.18385e-05
1.19842e-05
-1.19842e-05
-1.23789e-05
1.14911e-05
8.87879e-07
-1.23789e-05
1.04754e-05
1.20088e-05
-1.20088e-05
-1.145e-05
1.145e-05
6.05505e-06
6.04539e-06
3.72251e-06
-3.47708e-06
1.17161e-05
9.77757e-06
3.30173e-06
-2.45931e-06
1.06936e-05
9.34712e-06
1.13201e-05
1.7098e-07
1.13201e-05
9.64376e-06
3.5065e-06
-3.95533e-06
1.24457e-05
1.31503e-05
9.30881e-06
1.31209e-05
-1.29978e-05
-1.23076e-07
1.31209e-05
1.19894e-05
-1.22164e-05
2.26982e-07
1.21811e-05
-1.91688e-07
1.21811e-05
8.86421e-06
-1.314e-05
1.42151e-07
1.314e-05
-1.34262e-05
2.86248e-07
3.27199e-06
9.59413e-06
-1.46998e-05
1.27362e-06
-1.46998e-05
1.15795e-05
-1.15795e-05
7.5741e-06
5.39067e-06
-1.34114e-05
1.34114e-05
7.19882e-06
5.52356e-06
-1.14775e-05
1.11069e-05
3.70526e-07
-1.24528e-05
9.75387e-07
-1.24528e-05
1.20521e-05
-1.29936e-05
9.41461e-07
1.22164e-05
-1.64286e-07
4.61011e-06
-4.22405e-06
1.24871e-05
-8.69944e-06
1.33096e-05
4.17119e-06
1.33672e-05
-1.33672e-05
6.6262e-06
5.95915e-06
1.31046e-05
-1.27494e-05
-3.55143e-07
1.31046e-05
8.50058e-06
-1.36638e-05
9.1442e-07
1.36638e-05
-1.29829e-05
-6.809e-07
-1.17275e-05
1.17275e-05
5.5423e-06
7.08137e-06
-1.29936e-05
7.61921e-06
5.10424e-06
1.38365e-05
-1.38365e-05
6.08887e-06
7.1342e-06
1.40803e-05
-1.40803e-05
8.99583e-06
4.28243e-06
4.31166e-06
-4.47035e-06
1.35024e-05
1.33075e-05
1.42052e-05
-1.42052e-05
1.26893e-05
-1.17555e-05
-9.33786e-07
1.26893e-05
7.23333e-06
5.86736e-06
-1.27733e-05
1.13727e-05
1.40058e-06
-1.27733e-05
8.6575e-06
-1.10386e-05
1.13988e-05
-3.60187e-07
-1.11069e-05
6.83424e-08
6.19689e-06
5.42589e-06
1.13471e-05
-1.10781e-05
-2.6902e-07
1.18721e-05
-5.25048e-07
-1.06633e-05
1.25608e-05
-1.89743e-06
-1.13988e-05
7.35433e-07
6.38233e-06
5.24589e-06
3.49753e-06
1.0794e-05
-3.18253e-06
4.86441e-06
6.00695e-06
4.36173e-06
-4.38497e-06
5.11406e-06
1.17258e-05
6.602e-06
1.14664e-05
-1.35996e-05
6.16686e-07
1.35996e-05
-1.25985e-05
-1.00117e-06
-1.22008e-05
4.45327e-07
1.22008e-05
-1.21625e-05
-3.83561e-08
1.32996e-05
1.0401e-05
9.71713e-07
1.0401e-05
6.17441e-06
1.428e-05
-4.86013e-06
5.26956e-06
1.24286e-05
7.17642e-06
1.06739e-05
-4.94875e-06
6.2652e-06
1.24973e-05
8.21461e-06
1.34842e-05
5.51353e-06
6.50878e-06
1.35052e-05
-1.44955e-05
1.44955e-05
3.65785e-06
1.18342e-05
-7.79944e-06
1.14573e-05
6.25652e-06
1.32755e-05
-9.39374e-06
1.56503e-05
-5.30592e-06
6.14154e-06
1.36288e-05
5.70411e-06
7.9681e-06
-8.49443e-06
1.4636e-05
-5.25973e-06
3.75558e-06
1.20797e-05
9.15149e-06
5.22907e-06
1.53259e-05
1.13601e-05
-1.24486e-05
1.11788e-05
1.2698e-06
-1.25608e-05
1.12158e-07
-1.25288e-05
3.66321e-07
1.25288e-05
-1.09999e-05
-1.52885e-06
5.25521e-06
1.1288e-05
-1.19491e-05
1.12002e-05
7.48847e-07
-1.19491e-05
-1.39158e-05
1.31734e-06
-1.39158e-05
-6.6772e-06
1.19324e-05
5.22151e-06
4.19013e-06
1.31468e-05
-1.31468e-05
5.17723e-06
6.75753e-06
7.39449e-06
1.24597e-05
1.10781e-05
-7.99327e-06
-3.08481e-06
7.66653e-06
1.20625e-05
-6.31451e-06
1.3981e-05
-1.11788e-05
7.90391e-06
3.27491e-06
4.4451e-06
8.16488e-06
2.79054e-07
-1.1279e-05
6.02365e-06
1.09155e-05
-7.55898e-06
1.35826e-05
6.54905e-06
7.28618e-06
1.39435e-05
1.4367e-05
-1.07049e-05
-3.6621e-06
1.4367e-05
1.24043e-05
-1.24043e-05
8.80535e-06
3.59896e-06
2.26087e-07
5.94683e-06
6.64186e-06
-1.41642e-05
1.10261e-05
3.13809e-06
-1.41642e-05
1.04842e-05
-1.04842e-05
-1.52051e-06
1.20047e-05
7.16011e-07
8.52312e-07
9.05135e-07
-1.7456e-07
1.24693e-05
-8.71512e-06
-3.75414e-06
1.24693e-05
1.39687e-06
9.35878e-07
1.15626e-05
-1.20475e-05
4.84907e-07
1.15626e-05
-1.11616e-05
1.27967e-05
-1.63509e-06
4.00962e-07
1.27967e-05
-1.16171e-05
1.23227e-05
-7.05642e-07
1.17963e-06
-1.3257e-05
1.20954e-06
-1.3257e-05
-1.05694e-06
1.23227e-05
1.24225e-05
-1.24225e-05
1.31817e-05
-1.31817e-05
-1.20083e-05
1.252e-05
-5.11692e-07
1.17332e-06
1.20123e-05
-1.23749e-05
3.62582e-07
1.20123e-05
-1.18295e-05
1.20544e-05
-2.24841e-07
1.82794e-07
1.20544e-05
-1.12414e-05
1.197e-05
-7.28527e-07
8.1293e-07
1.22621e-05
-1.22621e-05
1.252e-05
-1.26384e-05
1.26353e-05
3.06904e-09
-1.1834e-07
1.33061e-05
-1.33061e-05
9.31163e-07
1.197e-05
1.23538e-05
-1.23538e-05
-1.19783e-05
1.2368e-05
-3.89758e-07
-1.26353e-05
6.57038e-07
1.26216e-05
-1.26216e-05
-1.26557e-05
1.26557e-05
1.2915e-05
-1.3625e-05
1.27673e-05
-1.27673e-05
1.2368e-05
1.2304e-05
-1.2304e-05
-1.29321e-05
1.29321e-05
1.27881e-05
-1.27881e-05
-1.30438e-05
1.30438e-05
-1.2945e-05
1.2945e-05
1.2497e-05
-1.2497e-05
1.15563e-05
-1.23309e-05
7.74643e-07
1.15563e-05
-1.28119e-05
1.28119e-05
-1.27289e-05
1.27289e-05
1.30594e-05
-1.30594e-05
1.21257e-05
-1.25583e-05
4.32523e-07
1.21257e-05
-2.05184e-07
1.29971e-05
-1.29971e-05
-1.50509e-05
1.48551e-05
-1.24694e-05
1.24694e-05
1.22617e-05
-1.26096e-05
3.47913e-07
1.22617e-05
-2.96567e-07
-1.26987e-05
1.31298e-05
-4.31042e-07
-1.35207e-05
8.21923e-07
-1.35207e-05
-1.43313e-05
1.39889e-05
-3.33247e-07
-1.3457e-05
1.29507e-05
-1.29507e-05
-2.82937e-07
1.50571e-05
-1.39691e-05
1.91696e-05
-1.94526e-05
1.33844e-05
-1.27171e-05
1.27171e-05
1.22821e-05
-1.28873e-05
6.05192e-07
1.22821e-05
-3.2751e-07
1.31298e-05
-1.23061e-05
1.24368e-05
-1.30736e-07
8.23703e-07
1.30476e-05
-1.30476e-05
-1.31786e-05
1.31786e-05
-2.51816e-06
1.35738e-05
-1.10556e-05
-1.25713e-05
-3.15979e-07
1.25713e-05
-1.19845e-05
-5.86766e-07
1.24368e-05
-1.30314e-05
1.30314e-05
1.32695e-05
-1.32695e-05
-8.84009e-07
-1.75395e-05
1.84235e-05
1.25884e-05
-1.35138e-05
4.14306e-08
1.1446e-05
1.14233e-06
-2.45917e-07
-1.32679e-05
-1.22851e-05
3.00563e-07
1.22851e-05
-1.19797e-05
-3.05389e-07
-1.31983e-05
1.31982e-05
1.66485e-07
1.12796e-05
-1.3081e-05
1.25054e-05
5.7563e-07
-1.42552e-05
1.17411e-06
-1.42552e-05
1.26098e-05
-1.27185e-05
1.08624e-07
1.26098e-05
-1.38769e-05
1.39821e-05
-1.24642e-05
4.84486e-07
-1.24642e-05
-1.34425e-05
1.34425e-05
-2.41976e-07
1.27745e-05
-1.25325e-05
-1.22536e-05
1.3339e-05
-1.08541e-06
-1.25054e-05
2.51837e-07
-1.3349e-05
6.30512e-07
1.3349e-05
-1.21587e-05
-1.19028e-06
1.21743e-05
-1.16752e-05
-4.99047e-07
1.21743e-05
-1.27208e-05
1.23982e-05
3.22631e-07
-1.37728e-05
1.05191e-06
-1.37728e-05
-1.22876e-05
1.28873e-07
1.22876e-05
-1.28539e-05
5.66343e-07
-1.3339e-05
1.27425e-05
5.96455e-07
1.23982e-05
-1.32385e-05
3.84566e-07
1.32385e-05
-1.24956e-05
-7.42881e-07
-1.18e-05
1.24792e-07
1.18e-05
-1.15897e-05
-2.10357e-07
-1.27948e-05
1.27948e-05
-1.21236e-05
5.6881e-07
1.15548e-05
-5.41655e-07
7.49458e-07
-1.23314e-05
1.37067e-05
-1.37067e-05
-1.2489e-05
1.35827e-05
-1.0937e-06
1.21768e-06
1.28828e-05
-1.40226e-07
-1.28828e-05
1.17151e-05
1.16762e-06
-1.33346e-05
8.39068e-07
1.33346e-05
-1.25478e-05
-7.86893e-07
6.45833e-06
6.43772e-06
-1.28961e-05
-1.20955e-05
8.59369e-06
5.89787e-06
-1.44916e-05
-5.45601e-06
8.21833e-06
-1.71794e-05
8.4124e-06
6.58197e-06
-1.49944e-05
-5.81941e-06
-5.96448e-06
-1.18781e-05
2.88473e-07
1.18781e-05
-1.09225e-05
-9.55657e-07
-1.35827e-05
1.20171e-05
1.56563e-06
1.3433e-05
-1.71788e-06
-1.3433e-05
1.26454e-05
7.87584e-07
-1.30321e-05
4.84313e-07
1.30321e-05
-1.28352e-05
-1.96842e-07
-5.24594e-06
-6.81023e-06
-1.67783e-05
4.97493e-06
6.69199e-06
-1.16669e-05
-1.20912e-05
-5.98507e-06
-6.44333e-06
-5.69573e-06
-7.46376e-06
-6.70556e-06
-4.06051e-06
-8.86332e-06
-5.72477e-06
7.13101e-06
-1.59943e-05
-1.00243e-05
3.31871e-06
8.19038e-06
6.1355e-06
-1.43259e-05
-1.50009e-05
1.33301e-05
-1.31303e-06
-1.33301e-05
1.25513e-05
7.78806e-07
-1.19027e-05
1.12122e-05
6.90491e-07
3.07367e-07
6.91007e-06
-1.42526e-05
1.12122e-05
-1.13838e-05
1.13557e-05
2.81387e-08
-1.71658e-07
-1.31623e-05
1.31623e-05
-1.2697e-05
-4.65311e-07
3.27072e-07
-1.48065e-05
1.13557e-05
-1.07769e-05
1.09903e-07
1.0667e-05
5.78818e-07
-1.09943e-05
1.11042e-05
1.48322e-07
-1.05638e-05
1.0667e-05
-1.01253e-05
1.06941e-05
-1.15913e-05
6.68824e-07
1.15913e-05
-1.2597e-05
1.0057e-06
-5.00482e-06
8.78158e-06
-8.42186e-06
-3.59726e-07
9.47821e-06
-6.96627e-07
-9.47821e-06
9.4184e-06
5.9808e-08
1.0322e-05
-9.03598e-07
-1.0322e-05
1.00761e-05
1.60161e-06
1.10438e-05
-6.22806e-06
-7.33786e-06
-1.01175e-05
1.0284e-05
-1.01175e-05
5.95967e-06
7.71462e-06
-1.36743e-05
-1.24119e-05
-6.02542e-06
-9.11346e-06
1.013e-05
-1.01658e-06
-9.11347e-06
1.17053e-06
6.69548e-06
-1.30196e-05
6.48627e-06
6.03924e-06
-1.25255e-05
8.49758e-06
-1.4523e-05
-1.41886e-05
9.74595e-06
3.84094e-07
-9.74595e-06
9.50397e-06
7.96595e-06
5.88428e-06
-1.38502e-05
-1.44793e-05
1.44793e-05
-9.32721e-06
-5.1521e-06
1.48311e-06
-1.06941e-05
1.04372e-05
2.56906e-07
1.3958e-05
5.21348e-07
-1.27647e-05
1.27647e-05
1.19331e-06
8.93497e-06
5.69001e-07
-8.93497e-06
9.70647e-06
-7.71495e-07
6.76653e-08
-1.01193e-05
9.6819e-06
4.37403e-07
-1.01193e-05
-4.12836e-07
9.74409e-06
-6.21935e-08
-9.74409e-06
1.06357e-05
-8.91581e-07
1.29427e-05
-8.47649e-06
-4.46616e-06
1.29427e-05
3.45646e-07
1.10184e-05
1.53289e-06
1.10184e-05
-1.02471e-05
1.0822e-05
-5.74904e-07
-1.02471e-05
3.88568e-07
-1.37944e-05
9.15809e-06
4.63633e-06
-1.37944e-05
1.01337e-05
6.8827e-07
-1.01337e-05
1.11896e-05
-1.05584e-06
1.47499e-06
5.19375e-06
-8.85716e-06
-4.77471e-06
8.70911e-06
-8.53688e-06
-1.72226e-07
8.42186e-06
2.8725e-07
6.62634e-06
-1.31243e-05
-7.02892e-06
1.06451e-05
-2.07864e-07
1.06451e-05
1.12833e-05
-6.382e-07
-9.57907e-06
8.45993e-06
1.56795e-06
8.67208e-06
-9.14437e-06
4.72296e-07
8.53688e-06
1.35197e-07
7.3599e-07
-1.26563e-05
9.04282e-06
3.61351e-06
-1.26563e-05
1.14501e-05
-1.66847e-07
9.73781e-06
-1.2256e-05
9.14437e-06
5.93432e-07
-5.56063e-06
-1.2256e-05
1.10053e-05
-3.05075e-06
-7.9546e-06
-1.25063e-06
-3.72847e-06
1.00322e-05
1.14598e-05
1.11e-05
-1.15089e-05
4.08889e-07
1.15157e-05
-4.15691e-07
1.15157e-05
1.1106e-05
4.09673e-07
-8.26338e-06
-1.27628e-05
1.14471e-05
-1.84239e-06
-1.15089e-05
1.19617e-05
-1.31494e-05
1.18769e-06
4.528e-07
1.39701e-06
1.13782e-05
-2.72218e-07
1.13782e-05
-1.31494e-05
-1.19987e-05
1.19987e-05
1.17907e-05
-1.17907e-05
-1.19321e-05
1.19321e-05
8.98782e-06
-9.59011e-06
6.02288e-07
8.98782e-06
1.16209e-05
-1.16209e-05
-1.17645e-05
1.17645e-05
1.17902e-05
-1.17902e-05
-1.21401e-05
1.21401e-05
1.13353e-05
-1.13353e-05
5.7804e-07
-1.20196e-05
1.20196e-05
1.16119e-05
-1.28779e-05
1.26603e-06
-4.07751e-07
-9.92777e-06
-1.40751e-06
1.11269e-05
-1.11269e-05
1.19917e-06
1.08999e-05
-1.08999e-05
1.0951e-05
-5.10578e-08
-1.75981e-07
1.14833e-05
-1.14833e-05
1.11846e-05
2.98753e-07
2.84652e-07
-1.36884e-05
1.24608e-05
1.22763e-06
-1.36884e-05
-9.85964e-06
9.85964e-06
-1.12873e-05
1.42763e-06
1.21683e-05
-1.21683e-05
8.81077e-07
-1.28779e-05
1.20836e-05
-1.29358e-05
8.52194e-07
-7.9431e-07
1.2207e-05
2.53737e-07
-1.2207e-05
1.21131e-05
9.39727e-08
9.44942e-06
-9.47412e-06
2.47012e-08
9.44941e-06
-1.40698e-07
9.62677e-06
-9.62677e-06
1.52652e-07
-1.00263e-05
-6.79773e-08
1.00943e-05
1.00263e-05
-1.01197e-05
9.33482e-08
1.23215e-05
-1.23042e-05
-1.73605e-08
1.29358e-05
-6.14237e-07
1.21978e-05
-8.47644e-08
-1.21978e-05
1.21979e-05
-3.46078e-11
1.00064e-05
-9.97874e-06
-2.76895e-08
1.00064e-05
-1.13248e-07
1.07137e-05
-1.07137e-05
7.34998e-07
1.23042e-05
-1.16548e-05
-6.49408e-07
1.02505e-05
-1.02076e-05
-4.28939e-08
1.02505e-05
1.22386e-05
-4.07646e-08
-1.22386e-05
1.22002e-05
3.84384e-08
9.91471e-06
-9.77667e-06
-1.38037e-07
9.91471e-06
-2.92854e-07
1.01062e-05
-9.85053e-06
-2.55705e-07
1.01062e-05
3.29563e-07
-1.02608e-05
4.10231e-07
1.02608e-05
-9.82219e-06
-4.38574e-07
-1.2967e-05
1.31225e-06
-1.2967e-05
2.68215e-07
-1.23097e-05
1.22267e-05
8.29618e-08
-1.23097e-05
-1.09495e-07
-1.03109e-05
-1.30533e-07
-1.02591e-05
-5.18088e-08
1.02591e-05
-1.01685e-05
-9.05521e-08
1.18122e-05
-1.18122e-05
1.05946e-05
-1.35833e-07
-1.04587e-05
1.05946e-05
4.26049e-07
-1.17732e-05
1.20893e-05
-3.16017e-07
-1.17732e-05
4.53469e-07
1.05968e-05
-1.02027e-05
-3.94024e-07
1.05968e-05
-1.02407e-05
3.79511e-08
1.02407e-05
-1.00847e-05
-1.55939e-07
-1.01039e-05
1.91858e-08
1.01039e-05
-1.03732e-05
2.69236e-07
1.21179e-05
-1.19649e-05
-1.53017e-07
1.21179e-05
1.0278e-05
-1.00051e-05
-2.72936e-07
1.0278e-05
-9.51661e-08
-1.16393e-05
1.16393e-05
4.49917e-07
1.03449e-05
-1.03154e-05
-2.95463e-08
1.03449e-05
3.39878e-07
-1.02132e-05
-1.02199e-07
1.02132e-05
-1.05989e-05
3.85665e-07
1.04308e-05
-1.02903e-05
-1.40493e-07
1.04308e-05
-1.68083e-07
-1.33372e-05
1.37232e-06
1.21418e-05
-1.26787e-05
5.36963e-07
1.33372e-05
-1.19544e-06
-1.07543e-05
4.64039e-07
1.07543e-05
-6.31799e-07
-1.01225e-05
1.18248e-05
-1.18248e-05
-1.01393e-05
-4.02074e-09
-1.05088e-05
3.69534e-07
1.05088e-05
-1.03095e-05
-1.99263e-07
1.15982e-05
-1.25544e-05
9.56223e-07
1.26787e-05
-1.08059e-06
-1.01792e-05
-1.30381e-07
1.01792e-05
-9.96066e-06
-2.185e-07
-1.31917e-05
1.24555e-05
7.36227e-07
-1.31917e-05
1.00672e-05
-9.89082e-06
-1.76393e-07
1.00672e-05
1.06558e-07
-1.00395e-05
1.48671e-07
1.00395e-05
-9.94373e-06
-9.57635e-08
1.01881e-05
-1.01519e-05
-3.62268e-08
1.01881e-05
2.44358e-07
-1.10359e-05
8.84068e-07
-1.10359e-05
1.17666e-05
-1.22068e-05
4.40183e-07
1.25544e-05
-7.87767e-07
1.06237e-05
-1.04591e-05
-1.6466e-07
1.06237e-05
-1.09849e-05
5.25831e-07
-1.09849e-05
1.05471e-05
-1.02952e-05
-2.51868e-07
1.05471e-05
-1.02567e-05
-3.85393e-08
1.02567e-05
-1.02532e-05
-3.4806e-09
1.23411e-05
1.14384e-07
-1.23411e-05
1.1145e-05
1.19612e-06
2.66178e-08
1.05209e-05
-1.01542e-05
-3.66711e-07
1.05209e-05
9.8977e-06
-1.04042e-05
5.06485e-07
9.8977e-06
-2.56485e-07
1.19804e-05
-1.25578e-05
5.77349e-07
1.22068e-05
-2.26366e-07
-1.08585e-05
4.54284e-07
-1.08585e-05
-9.98603e-06
9.98603e-06
-1.00046e-05
1.00046e-05
-9.65724e-06
9.65724e-06
1.31799e-05
-2.0349e-06
-1.31799e-05
1.26777e-05
5.02259e-07
1.14864e-05
-1.15005e-05
1.41868e-08
1.25578e-05
-1.07142e-06
-1.0425e-05
1.05093e-06
-1.56198e-05
5.19481e-06
-1.56198e-05
1.20922e-05
5.8549e-07
1.20922e-05
-1.15005e-05
-1.39922e-05
1.39922e-05
1.05561e-05
-2.93783e-06
-3.43608e-06
4.82082e-06
5.5753e-06
-1.03961e-05
5.1483e-06
-1.20522e-05
7.62666e-06
4.96484e-06
-1.25915e-05
-8.1675e-06
-6.1665e-06
-5.34121e-06
-7.82757e-06
-1.22254e-05
-6.49392e-06
-4.51033e-06
-7.99357e-06
-4.39662e-06
-8.18705e-06
-5.12013e-06
-7.43605e-06
-7.82714e-06
-4.85997e-06
-7.29377e-06
-5.23919e-06
-7.51743e-06
-5.35812e-06
-7.56159e-06
-4.95863e-06
-4.93916e-06
-7.33994e-06
-9.08519e-06
-4.60903e-06
-4.48262e-06
6.62032e-06
-1.54714e-05
-1.35678e-05
-4.42746e-06
6.56344e-06
-1.54265e-05
9.11117e-06
-1.35386e-05
-4.61122e-06
-7.70057e-06
-7.75788e-06
-6.81887e-06
-4.84045e-06
-6.87945e-06
-4.68509e-06
6.01522e-06
-8.73528e-06
2.72006e-06
6.94342e-06
-9.28204e-07
-1.28812e-05
5.02389e-06
7.85728e-06
-5.95165e-06
-2.78363e-06
-3.62464e-09
-1.28775e-05
-1.29764e-05
1.29728e-05
6.41404e-06
-9.65472e-06
3.24068e-06
6.70457e-06
-2.90537e-07
-1.79706e-06
2.54999e-06
-2.86927e-07
-1.67577e-05
1.70446e-05
1.37662e-05
-1.40531e-05
-6.39999e-07
1.42979e-06
-1.70588e-05
3.01045e-07
1.31352e-05
-1.47353e-05
1.60019e-06
-3.8238e-07
-1.10703e-06
-1.36283e-05
-1.51602e-05
-2.4843e-06
-7.17042e-06
-1.0059e-05
9.76845e-06
-6.02904e-06
4.5274e-06
-2.9542e-07
-2.23196e-06
9.60306e-06
-7.3711e-06
-5.02032e-06
3.38653e-06
6.21653e-06
5.13029e-06
-9.81662e-07
-1.23181e-05
1.32998e-05
1.27021e-05
-1.36838e-05
-4.46177e-07
-1.36976e-05
1.42395e-05
-1.27643e-05
8.97983e-06
-9.65763e-06
-5.89637e-06
7.60716e-06
-1.71079e-06
6.34794e-08
9.83572e-07
1.68349e-05
4.63887e-06
-2.14737e-05
2.10983e-06
5.49733e-06
1.19525e-05
-6.412e-07
-1.13113e-05
7.25004e-06
1.46158e-05
-9.91335e-06
1.29571e-05
-1.35983e-05
2.81088e-09
1.90012e-07
1.27443e-07
7.12541e-06
1.1909e-06
-6.08377e-06
7.21844e-06
-7.9485e-07
-6.42359e-06
1.03824e-06
1.24693e-05
-1.3963e-05
-1.55565e-07
-1.3553e-05
-1.37539e-05
3.88367e-08
7.87392e-06
-7.91276e-06
-1.38507e-05
3.4996e-06
-9.92319e-06
-5.06847e-06
-2.04927e-06
-6.06829e-06
1.34308e-05
5.9277e-06
-4.2654e-06
-9.13804e-07
1.11862e-05
-1.774e-06
2.82554e-06
2.627e-06
7.6834e-06
1.5947e-06
-3.08538e-06
-4.12219e-06
1.18056e-05
-3.35654e-06
1.10989e-05
7.86861e-06
-4.16515e-06
2.2734e-06
4.13388e-06
-9.85521e-06
5.73303e-06
-7.58181e-06
-1.56836e-05
-1.26013e-06
1.69437e-05
9.6088e-06
-8.45753e-06
-2.35691e-06
-7.12585e-06
9.48276e-06
6.21115e-06
-6.45823e-06
-2.41058e-08
-7.10174e-06
1.37526e-05
-1.34788e-05
-8.90432e-07
1.46578e-05
1.31911e-05
-1.40815e-05
-3.01075e-07
1.34921e-05
-1.34452e-05
1.31441e-05
-9.12688e-06
1.00919e-05
-9.6499e-07
3.55883e-07
-1.47053e-05
-2.09429e-06
9.20543e-06
-7.11114e-06
7.07715e-06
-9.17144e-06
2.74056e-06
6.46487e-06
-7.21569e-06
7.33058e-06
-1.1489e-07
5.46978e-06
-5.60832e-06
-1.80379e-06
9.13437e-06
6.40655e-06
1.19073e-06
7.94364e-06
1.47126e-05
-2.56167e-06
-1.21509e-05
4.57328e-07
-9.04948e-07
1.67089e-05
-1.92706e-05
1.07514e-07
1.01342e-06
-6.64138e-06
5.59488e-07
7.07768e-06
-4.59318e-07
-6.61836e-06
9.20677e-07
-2.19372e-05
2.29653e-05
8.24029e-06
-8.69961e-06
-3.12363e-05
1.09807e-05
-2.31316e-05
1.31293e-05
-2.14861e-06
2.80814e-06
-9.4265e-06
-5.88251e-06
-2.14668e-06
-7.27982e-06
5.45679e-06
1.81965e-06
-7.27644e-06
6.07963e-06
-6.22842e-07
8.95534e-06
-7.13569e-06
-1.85843e-06
-5.41801e-06
7.745e-06
-7.04473e-06
-7.00266e-07
6.79726e-07
-4.58673e-08
-1.10154e-05
3.97071e-06
-1.68464e-06
-9.3308e-06
1.09292e-05
-6.95845e-06
2.43744e-06
8.40865e-06
-7.54255e-06
-8.66104e-07
6.57489e-06
1.83376e-06
-1.58901e-06
6.86503e-06
6.82772e-06
3.29607e-06
2.82564e-06
-8.12971e-06
1.13523e-05
-3.22263e-06
9.67877e-06
2.32647e-06
-1.97301e-06
2.54296e-06
7.13581e-06
2.53645e-07
-2.66696e-06
1.47111e-05
1.40399e-05
1.52582e-05
-5.15362e-06
1.2681e-05
2.57719e-06
-8.46592e-06
3.36207e-07
-4.29097e-06
-4.17495e-06
-8.79113e-06
9.0118e-06
9.68315e-07
2.64889e-06
1.99142e-06
7.61736e-06
7.95357e-06
1.04965e-05
-4.00642e-06
-4.5175e-06
8.52392e-06
-9.46858e-06
5.46216e-06
-5.0167e-06
-4.45188e-06
-6.64928e-06
8.76838e-06
-1.07146e-05
-8.84909e-06
1.95637e-05
-1.20016e-05
1.3968e-05
1.18055e-05
-4.80718e-06
-6.99836e-06
2.31979e-06
9.48575e-06
7.78195e-06
6.98535e-06
-1.58344e-05
3.17002e-06
4.22064e-06
5.87951e-06
9.25905e-06
5.23001e-06
-1.10164e-05
6.49892e-06
8.2485e-06
-1.75446e-05
1.97306e-05
-2.18608e-06
2.01914e-06
-2.25074e-06
8.66582e-06
-6.41508e-06
5.69723e-06
-7.94796e-06
6.62154e-06
-9.24319e-07
-4.15646e-06
-3.7915e-06
-3.49051e-06
1.11177e-05
-7.62716e-06
-4.40548e-06
-8.10443e-06
1.25099e-05
-7.89598e-06
2.53051e-06
-6.30446e-06
-6.66165e-06
-3.21506e-06
-2.86804e-06
-9.29692e-06
-5.05271e-07
3.57157e-06
3.30204e-06
-1.2599e-05
-3.92626e-06
-7.08361e-06
-1.16346e-05
-1.21645e-05
-5.25922e-06
7.39944e-06
-8.86244e-06
-5.05939e-06
1.2733e-05
-7.67361e-06
-1.05231e-06
1.41358e-05
-1.30835e-05
-1.34931e-05
1.30342e-05
9.91653e-06
-9.83589e-06
3.24288e-06
6.67365e-06
-4.7494e-06
7.99228e-06
6.37954e-07
1.28686e-05
7.31161e-06
5.05629e-07
1.24981e-05
-8.81857e-06
9.3242e-06
-9.80879e-06
5.31726e-06
7.91459e-06
8.59684e-07
-8.77427e-06
-2.76801e-06
8.26771e-06
-5.4997e-06
5.14658e-06
8.60085e-06
-3.45427e-06
-7.22012e-06
-1.06676e-06
8.28689e-06
-4.46179e-06
-2.75833e-06
-7.74751e-06
3.28572e-06
-7.96998e-06
5.21165e-06
7.27195e-06
-5.85031e-08
-7.21344e-06
5.70726e-06
1.56469e-06
-8.36811e-06
8.30961e-06
-7.13522e-06
-7.82232e-08
-9.12799e-06
2.49954e-06
6.62845e-06
1.32913e-07
-3.05563e-07
-6.16171e-06
8.66125e-06
5.08319e-08
7.29618e-07
7.93163e-06
8.10798e-08
1.25168e-05
-2.98907e-06
-8.04158e-07
7.09639e-06
-5.02539e-06
7.69888e-06
-2.67349e-06
-3.32212e-07
1.15123e-05
1.79482e-05
-1.52495e-07
7.85137e-06
7.29977e-06
-9.35284e-07
8.78665e-06
-3.74418e-06
-3.91473e-06
7.65891e-06
6.31088e-06
-2.10102e-06
-4.20986e-06
2.5667e-06
7.04176e-06
-1.50183e-06
-5.53993e-06
2.03989e-06
5.00187e-06
3.28388e-06
-3.34501e-06
6.1381e-06
-1.13623e-06
4.30601e-06
5.11598e-06
9.8348e-06
-1.23756e-06
-8.59724e-06
9.11017e-06
7.24632e-07
-9.91398e-06
8.67642e-06
7.57563e-06
-8.47852e-06
9.02891e-07
7.72458e-06
-1.48952e-07
-7.86654e-06
-6.1198e-07
6.8064e-06
3.05761e-06
-9.86401e-06
-1.03178e-07
6.90958e-06
9.35598e-06
-9.45916e-06
-4.86236e-06
6.3518e-06
-8.17489e-06
9.50827e-06
-1.33338e-06
-5.68246e-06
-2.49243e-06
8.69844e-06
8.09832e-07
-2.83138e-06
8.23414e-06
3.78208e-06
2.96687e-06
3.15772e-06
-1.36131e-05
7.58839e-06
6.02476e-06
-6.72846e-06
-6.88469e-06
-6.67366e-06
5.12243e-06
7.53172e-06
5.86854e-06
5.39228e-06
6.7249e-06
3.52258e-06
-5.084e-06
-7.62014e-06
3.33293e-06
-5.04302e-06
-7.5771e-06
-3.07458e-06
-7.70204e-06
-6.96052e-06
-6.25001e-06
-6.45686e-06
6.55893e-06
-1.28089e-05
-5.64753e-06
-1.06878e-05
-2.1211e-06
6.5521e-06
-1.72399e-05
-2.28078e-06
9.89521e-06
-7.61443e-06
7.45927e-06
-9.74005e-06
7.18264e-06
2.76632e-07
1.05473e-06
-8.38546e-06
7.33073e-06
-6.13097e-06
5.50106e-06
3.32243e-07
-8.7177e-06
-3.49545e-06
-4.50012e-06
7.99558e-06
-9.03793e-06
8.60009e-06
7.84021e-06
-1.23403e-05
6.96446e-06
-1.44774e-05
7.51295e-06
3.21434e-06
-7.52923e-06
-5.10298e-06
-3.00889e-06
-3.49799e-06
-7.3026e-06
-7.20637e-06
-7.33391e-06
-5.52932e-06
7.18094e-06
-1.45149e-05
-5.84483e-06
-7.5504e-06
-5.34032e-06
-7.37825e-06
4.00822e-06
7.38275e-06
-1.1391e-05
1.0191e-05
-6.18279e-06
7.77766e-06
-3.94909e-07
-8.91374e-06
-2.47724e-06
-1.66594e-06
-7.38401e-06
9.04995e-06
-7.49655e-06
7.46609e-06
3.04525e-08
9.16249e-06
-7.67897e-06
-1.48352e-06
6.8019e-06
-7.50636e-06
7.04463e-07
-1.56932e-06
-9.17204e-06
1.07414e-05
5.23258e-06
-4.27761e-06
-3.22875e-06
7.12551e-06
-6.42104e-06
-3.37923e-06
4.77588e-06
7.94174e-06
1.13664e-05
-1.32432e-05
1.87678e-06
-6.46899e-06
1.78354e-05
-6.86869e-06
-6.37449e-06
-7.05956e-06
5.70441e-06
-7.48071e-06
5.29636e-06
-3.1776e-06
2.50669e-06
4.64462e-06
6.94885e-06
-1.00188e-05
9.68538e-06
3.33452e-07
-7.97281e-06
-2.04603e-06
-3.73254e-07
-4.16912e-07
-1.11896e-05
9.14358e-06
-1.66766e-06
7.9825e-06
-4.98392e-07
-1.07756e-06
-1.55757e-06
-8.68099e-06
1.02386e-05
7.61566e-06
-6.72919e-06
-1.9518e-06
-7.62713e-07
8.81852e-06
1.42005e-06
-2.09983e-06
9.77223e-06
1.00106e-05
3.72084e-06
3.33399e-06
-7.13604e-06
-1.41103e-06
8.54707e-06
-7.39905e-07
-6.39614e-06
8.57647e-06
-9.31637e-06
3.43555e-06
-9.83169e-06
1.69983e-06
-8.78561e-06
7.08577e-06
-5.28275e-06
6.98258e-06
3.30116e-06
-8.58391e-06
-1.21496e-06
8.19754e-06
-1.06839e-05
1.54477e-06
9.1391e-06
-4.5191e-07
-1.56614e-06
-7.91233e-06
9.4571e-06
-1.7427e-06
-1.08555e-07
9.56566e-06
-9.60049e-06
3.18244e-06
6.41805e-06
-7.20607e-07
-8.87988e-06
-8.16413e-06
8.17315e-06
-8.77378e-06
-1.061e-07
-1.45449e-06
6.32554e-06
6.77642e-06
3.25187e-06
4.49353e-06
5.50302e-06
3.14113e-06
3.4285e-07
9.81913e-06
-1.0162e-05
7.68792e-06
2.04824e-06
-9.73616e-06
8.03077e-06
-6.04818e-06
3.63034e-06
-7.61612e-06
1.62578e-06
-1.2717e-05
-3.18714e-06
-3.27057e-06
-6.64535e-06
-7.12289e-06
-7.61194e-06
3.36987e-06
-7.22178e-06
-7.91539e-06
-2.69335e-06
-4.06946e-06
-6.22462e-06
-1.80904e-06
1.95584e-06
-7.57015e-06
5.61431e-06
-7.88526e-06
6.65473e-06
1.23053e-06
-5.92942e-06
9.41894e-06
-4.96966e-06
-4.44928e-06
1.92898e-06
7.48996e-06
-1.05215e-05
5.55187e-06
-6.66678e-06
6.19043e-06
4.76343e-07
1.24426e-06
-7.91103e-06
-2.7675e-06
8.95793e-06
7.85837e-06
-7.38203e-06
-1.0197e-05
8.81293e-06
1.38403e-06
-8.37716e-06
-1.8198e-06
-4.90401e-07
-1.62178e-07
5.28392e-06
-2.78481e-06
7.22113e-06
-1.41236e-06
1.14722e-05
4.09529e-06
2.49368e-06
7.32755e-06
6.75619e-06
7.6247e-06
1.03463e-05
2.45859e-06
-1.28048e-05
6.16644e-06
-3.44549e-06
-3.67324e-06
-3.62786e-06
-3.12514e-06
-7.80326e-06
1.02618e-05
-6.6006e-06
-4.89669e-06
-2.98456e-06
-1.05168e-05
2.19332e-06
8.32351e-06
-1.11012e-06
7.84293e-07
-7.65701e-06
9.85034e-06
-9.89469e-07
4.3732e-07
9.41301e-06
3.06013e-06
-7.58812e-06
-7.23175e-06
-3.57741e-06
-3.33612e-06
4.99096e-06
-3.68044e-06
-4.21918e-06
-7.15965e-06
-1.38854e-05
3.47542e-06
-8.65475e-06
7.4755e-06
-5.84967e-06
-1.28181e-05
4.1634e-06
-3.48262e-06
-9.33553e-06
-1.52916e-06
1.28611e-05
-1.1332e-05
-1.38466e-05
-1.26929e-05
-4.83816e-06
8.64196e-06
-5.33656e-06
-3.18105e-06
7.41511e-06
7.51127e-06
3.18029e-06